 Entering Gaussian System, Link 0=g16
 Initial command:
 /sw/arch/RHEL8/EB_production/2022/software/Gaussian/g16.c02/l1.exe "/scratch-local/calessandra.3358520/calessandra/Gau-3469256.inp" -scrdir="/scratch-local/calessandra.3358520/calessandra/"
 Entering Link 1 = /sw/arch/RHEL8/EB_production/2022/software/Gaussian/g16.c02/l1.exe PID=   3469261.
  
 Copyright (c) 1988-2021, Gaussian, Inc.  All Rights Reserved.
  
 This is part of the Gaussian(R) 16 program.  It is based on
 the Gaussian(R) 09 system (copyright 2009, Gaussian, Inc.),
 the Gaussian(R) 03 system (copyright 2003, Gaussian, Inc.),
 the Gaussian(R) 98 system (copyright 1998, Gaussian, Inc.),
 the Gaussian(R) 94 system (copyright 1995, Gaussian, Inc.),
 the Gaussian 92(TM) system (copyright 1992, Gaussian, Inc.),
 the Gaussian 90(TM) system (copyright 1990, Gaussian, Inc.),
 the Gaussian 88(TM) system (copyright 1988, Gaussian, Inc.),
 the Gaussian 86(TM) system (copyright 1986, Carnegie Mellon
 University), and the Gaussian 82(TM) system (copyright 1983,
 Carnegie Mellon University). Gaussian is a federally registered
 trademark of Gaussian, Inc.
  
 This software contains proprietary and confidential information,
 including trade secrets, belonging to Gaussian, Inc.
  
 This software is provided under written license and may be
 used, copied, transmitted, or stored only in accord with that
 written license.
  
 The following legend is applicable only to US Government
 contracts under FAR:
  
                    RESTRICTED RIGHTS LEGEND
  
 Use, reproduction and disclosure by the US Government is
 subject to restrictions as set forth in subparagraphs (a)
 and (c) of the Commercial Computer Software - Restricted
 Rights clause in FAR 52.227-19.
  
 Gaussian, Inc.
 340 Quinnipiac St., Bldg. 40, Wallingford CT 06492
  
  
 ---------------------------------------------------------------
 Warning -- This program may not be used in any manner that
 competes with the business of Gaussian, Inc. or will provide
 assistance to any competitor of Gaussian, Inc.  The licensee
 of this program is prohibited from giving any competitor of
 Gaussian, Inc. access to this program.  By using this program,
 the user acknowledges that Gaussian, Inc. is engaged in the
 business of creating and licensing software in the field of
 computational chemistry and represents and warrants to the
 licensee that it is not a competitor of Gaussian, Inc. and that
 it will not use this program in any manner prohibited above.
 ---------------------------------------------------------------
  

 Cite this work as:
 Gaussian 16, Revision C.02,
 M. J. Frisch, G. W. Trucks, H. B. Schlegel, G. E. Scuseria, 
 M. A. Robb, J. R. Cheeseman, G. Scalmani, V. Barone, 
 G. A. Petersson, H. Nakatsuji, X. Li, M. Caricato, A. V. Marenich, 
 J. Bloino, B. G. Janesko, R. Gomperts, B. Mennucci, H. P. Hratchian, 
 J. V. Ortiz, A. F. Izmaylov, J. L. Sonnenberg, D. Williams-Young, 
 F. Ding, F. Lipparini, F. Egidi, J. Goings, B. Peng, A. Petrone, 
 T. Henderson, D. Ranasinghe, V. G. Zakrzewski, J. Gao, N. Rega, 
 G. Zheng, W. Liang, M. Hada, M. Ehara, K. Toyota, R. Fukuda, 
 J. Hasegawa, M. Ishida, T. Nakajima, Y. Honda, O. Kitao, H. Nakai, 
 T. Vreven, K. Throssell, J. A. Montgomery, Jr., J. E. Peralta, 
 F. Ogliaro, M. J. Bearpark, J. J. Heyd, E. N. Brothers, K. N. Kudin, 
 V. N. Staroverov, T. A. Keith, R. Kobayashi, J. Normand, 
 K. Raghavachari, A. P. Rendell, J. C. Burant, S. S. Iyengar, 
 J. Tomasi, M. Cossi, J. M. Millam, M. Klene, C. Adamo, R. Cammi, 
 J. W. Ochterski, R. L. Martin, K. Morokuma, O. Farkas, 
 J. B. Foresman, and D. J. Fox, Gaussian, Inc., Wallingford CT, 2019.
 
 ******************************************
 Gaussian 16:  ES64L-G16RevC.02  7-Dec-2021
                16-Aug-2023 
 ******************************************
 %NProcShared=16
 Will use up to   16 processors via shared memory.
 %LindaWorkers=tcn50
 %Chk=cor+_aliph_C8C9_ts_int_s2.chk
 %mem=9gb
 SetLPE:    new flags="-opt 'Tsnet.Node.lindarsharg: ssh'  -nodelist 'tcn50.local.snellius.surf.nl' -env GAUSS_MDEF=1207959552 -env GAUSS_EXEDIR="/sw/arch/RHEL8/EB_production/2022/software/Gaussian/g16.c02/bsd:/sw/arch/RHEL8/EB_production/2022/software/Gaussian/g16.c02""
 Will use up to    1 processors via Linda.
 -------------------------------------------------------------------
 #n M062x/6-31G(d) Opt=tight scf=novaracc int=ultrafine freq=noraman
 -------------------------------------------------------------------
 1/7=10,18=20,19=15,26=4,38=1/1,3;
 2/9=110,12=2,17=6,18=5,40=1/2;
 3/5=1,6=6,7=1,11=2,25=1,30=1,71=1,74=-55,75=-5/1,2,3;
 4//1;
 5/5=2,38=1/2;
 6/7=2,8=2,9=2,10=2,28=1/1;
 7//1,2,3,16;
 1/7=10,18=20,19=15,26=4/3(2);
 2/9=110/2;
 99//99;
 2/9=110/2;
 3/5=1,6=6,7=1,11=2,25=1,30=1,71=1,74=-55,75=-5/1,2,3;
 4/5=5,16=3,69=1/1;
 5/5=2,38=1/2;
 7//1,2,3,16;
 1/7=10,18=20,19=15,26=4/3(-5);
 2/9=110/2;
 6/7=2,8=2,9=2,10=2,19=2,28=1/1;
 99/9=1/99;
 -------------------------
 cor+_aliph_C8C8_ts_int_s2
 -------------------------
 Symbolic Z-matrix:
 Charge =  1 Multiplicity = 2
 C                    -0.89041  -0.66297   0.05992 
 C                     0.46458  -1.19217   0.07672 
 C                     1.30226  -0.09244   0.02287 
 C                     0.55699   1.03727   0.0017 
 C                    -0.75964   0.71664   0.02831 
 C                    -2.15727  -1.19773  -0.02413 
 C                    -2.31535  -2.61032  -0.15227 
 C                    -2.26567  -4.01032  -0.36321 
 C                     1.0287   -2.44751   0.07364 
 C                     2.433    -2.53674   0.00629 
 C                     3.25738  -1.3828   -0.06719 
 C                     2.68387  -0.09198  -0.06206 
 C                     3.2806    1.1976   -0.16032 
 C                     2.48365   2.38364  -0.1803 
 C                     1.06217   2.32021  -0.10678 
 C                     0.06766   3.33766  -0.15925 
 C                    -1.32465   3.01407  -0.13269 
 C                    -1.76855   1.66038  -0.05512 
 C                    -3.0685    1.10396  -0.09077 
 C                    -3.25232  -0.30884  -0.08459 
 H                    -2.20144  -4.68196   0.48379 
 H                     2.88905  -3.52405  -0.00735 
 H                     4.33466  -1.50158  -0.14478 
 H                     4.36145   1.28143  -0.24611 
 H                     2.97354   3.34902  -0.28134 
 H                     0.36923   4.37846  -0.25154 
 H                    -2.05588   3.81578  -0.20728 
 H                    -3.9358    1.75506  -0.16834 
 H                    -4.26298  -0.70546  -0.16527 
 H                    -1.99204  -4.3808   -1.34511 
 

 GradGradGradGradGradGradGradGradGradGradGradGradGradGradGradGradGradGrad
 Berny optimization.
 Initialization pass.
                           ----------------------------
                           !    Initial Parameters    !
                           ! (Angstroms and Degrees)  !
 --------------------------                            --------------------------
 ! Name  Definition              Value          Derivative Info.                !
 --------------------------------------------------------------------------------
 ! R1    R(1,2)                  1.4548         estimate D2E/DX2                !
 ! R2    R(1,5)                  1.3862         estimate D2E/DX2                !
 ! R3    R(1,6)                  1.3777         estimate D2E/DX2                !
 ! R4    R(2,3)                  1.3835         estimate D2E/DX2                !
 ! R5    R(2,9)                  1.3763         estimate D2E/DX2                !
 ! R6    R(3,4)                  1.3536         estimate D2E/DX2                !
 ! R7    R(3,12)                 1.3842         estimate D2E/DX2                !
 ! R8    R(4,5)                  1.3554         estimate D2E/DX2                !
 ! R9    R(4,15)                 1.3831         estimate D2E/DX2                !
 ! R10   R(5,18)                 1.384          estimate D2E/DX2                !
 ! R11   R(6,7)                  1.4272         estimate D2E/DX2                !
 ! R12   R(6,20)                 1.4117         estimate D2E/DX2                !
 ! R13   R(7,8)                  1.4167         estimate D2E/DX2                !
 ! R14   R(8,21)                 1.0829         estimate D2E/DX2                !
 ! R15   R(8,30)                 1.0846         estimate D2E/DX2                !
 ! R16   R(9,10)                 1.4087         estimate D2E/DX2                !
 ! R17   R(10,11)                1.4201         estimate D2E/DX2                !
 ! R18   R(10,22)                1.0876         estimate D2E/DX2                !
 ! R19   R(11,12)                1.4125         estimate D2E/DX2                !
 ! R20   R(11,23)                1.0866         estimate D2E/DX2                !
 ! R21   R(12,13)                1.4243         estimate D2E/DX2                !
 ! R22   R(13,14)                1.4291         estimate D2E/DX2                !
 ! R23   R(13,24)                1.0875         estimate D2E/DX2                !
 ! R24   R(14,15)                1.4248         estimate D2E/DX2                !
 ! R25   R(14,25)                1.0873         estimate D2E/DX2                !
 ! R26   R(15,16)                1.4237         estimate D2E/DX2                !
 ! R27   R(16,17)                1.4297         estimate D2E/DX2                !
 ! R28   R(16,26)                1.0875         estimate D2E/DX2                !
 ! R29   R(17,18)                1.4267         estimate D2E/DX2                !
 ! R30   R(17,27)                1.0877         estimate D2E/DX2                !
 ! R31   R(18,19)                1.4145         estimate D2E/DX2                !
 ! R32   R(19,20)                1.4247         estimate D2E/DX2                !
 ! R33   R(19,28)                1.0873         estimate D2E/DX2                !
 ! R34   R(20,29)                1.0887         estimate D2E/DX2                !
 ! A1    A(2,1,5)              105.929          estimate D2E/DX2                !
 ! A2    A(2,1,6)              135.7255         estimate D2E/DX2                !
 ! A3    A(5,1,6)              118.1442         estimate D2E/DX2                !
 ! A4    A(1,2,3)              105.9233         estimate D2E/DX2                !
 ! A5    A(1,2,9)              135.5253         estimate D2E/DX2                !
 ! A6    A(3,2,9)              118.4756         estimate D2E/DX2                !
 ! A7    A(2,3,4)              109.3094         estimate D2E/DX2                !
 ! A8    A(2,3,12)             127.3729         estimate D2E/DX2                !
 ! A9    A(4,3,12)             123.2523         estimate D2E/DX2                !
 ! A10   A(3,4,5)              109.7012         estimate D2E/DX2                !
 ! A11   A(3,4,15)             125.0512         estimate D2E/DX2                !
 ! A12   A(5,4,15)             125.1551         estimate D2E/DX2                !
 ! A13   A(1,5,4)              109.1194         estimate D2E/DX2                !
 ! A14   A(1,5,18)             127.6813         estimate D2E/DX2                !
 ! A15   A(4,5,18)             123.0687         estimate D2E/DX2                !
 ! A16   A(1,6,7)              119.4412         estimate D2E/DX2                !
 ! A17   A(1,6,20)             118.1321         estimate D2E/DX2                !
 ! A18   A(7,6,20)             122.2394         estimate D2E/DX2                !
 ! A19   A(7,8,21)             119.9041         estimate D2E/DX2                !
 ! A20   A(7,8,30)             118.7657         estimate D2E/DX2                !
 ! A21   A(21,8,30)            118.7706         estimate D2E/DX2                !
 ! A22   A(2,9,10)             117.806          estimate D2E/DX2                !
 ! A23   A(9,10,11)            121.9849         estimate D2E/DX2                !
 ! A24   A(9,10,22)            118.4296         estimate D2E/DX2                !
 ! A25   A(11,10,22)           119.576          estimate D2E/DX2                !
 ! A26   A(10,11,12)           120.4444         estimate D2E/DX2                !
 ! A27   A(10,11,23)           119.3681         estimate D2E/DX2                !
 ! A28   A(12,11,23)           120.1792         estimate D2E/DX2                !
 ! A29   A(3,12,11)            113.9023         estimate D2E/DX2                !
 ! A30   A(3,12,13)            115.0048         estimate D2E/DX2                !
 ! A31   A(11,12,13)           131.0742         estimate D2E/DX2                !
 ! A32   A(12,13,14)           121.2481         estimate D2E/DX2                !
 ! A33   A(12,13,24)           119.4477         estimate D2E/DX2                !
 ! A34   A(14,13,24)           119.2874         estimate D2E/DX2                !
 ! A35   A(13,14,15)           121.2456         estimate D2E/DX2                !
 ! A36   A(13,14,25)           119.1389         estimate D2E/DX2                !
 ! A37   A(15,14,25)           119.5935         estimate D2E/DX2                !
 ! A38   A(4,15,14)            114.1892         estimate D2E/DX2                !
 ! A39   A(4,15,16)            114.2453         estimate D2E/DX2                !
 ! A40   A(14,15,16)           131.5431         estimate D2E/DX2                !
 ! A41   A(15,16,17)           121.1873         estimate D2E/DX2                !
 ! A42   A(15,16,26)           119.5614         estimate D2E/DX2                !
 ! A43   A(17,16,26)           119.2251         estimate D2E/DX2                !
 ! A44   A(16,17,18)           121.2495         estimate D2E/DX2                !
 ! A45   A(16,17,27)           119.1189         estimate D2E/DX2                !
 ! A46   A(18,17,27)           119.5986         estimate D2E/DX2                !
 ! A47   A(5,18,17)            115.0526         estimate D2E/DX2                !
 ! A48   A(5,18,19)            113.7804         estimate D2E/DX2                !
 ! A49   A(17,18,19)           131.133          estimate D2E/DX2                !
 ! A50   A(18,19,20)           120.5672         estimate D2E/DX2                !
 ! A51   A(18,19,28)           119.9556         estimate D2E/DX2                !
 ! A52   A(20,19,28)           119.4207         estimate D2E/DX2                !
 ! A53   A(6,20,19)            121.6341         estimate D2E/DX2                !
 ! A54   A(6,20,29)            119.5959         estimate D2E/DX2                !
 ! A55   A(19,20,29)           118.732          estimate D2E/DX2                !
 ! A56   L(6,7,8,9,-1)         171.854          estimate D2E/DX2                !
 ! A57   L(6,7,8,9,-2)         183.9074         estimate D2E/DX2                !
 ! D1    D(5,1,2,3)             -1.3388         estimate D2E/DX2                !
 ! D2    D(5,1,2,9)           -177.9729         estimate D2E/DX2                !
 ! D3    D(6,1,2,3)            173.1581         estimate D2E/DX2                !
 ! D4    D(6,1,2,9)             -3.476          estimate D2E/DX2                !
 ! D5    D(2,1,5,4)              1.0531         estimate D2E/DX2                !
 ! D6    D(2,1,5,18)           176.9575         estimate D2E/DX2                !
 ! D7    D(6,1,5,4)           -174.5926         estimate D2E/DX2                !
 ! D8    D(6,1,5,18)             1.3119         estimate D2E/DX2                !
 ! D9    D(2,1,6,7)             -1.3014         estimate D2E/DX2                !
 ! D10   D(2,1,6,20)          -176.4414         estimate D2E/DX2                !
 ! D11   D(5,1,6,7)            172.6954         estimate D2E/DX2                !
 ! D12   D(5,1,6,20)            -2.4445         estimate D2E/DX2                !
 ! D13   D(1,2,3,4)              1.1572         estimate D2E/DX2                !
 ! D14   D(1,2,3,12)          -175.9513         estimate D2E/DX2                !
 ! D15   D(9,2,3,4)            178.4751         estimate D2E/DX2                !
 ! D16   D(9,2,3,12)             1.3666         estimate D2E/DX2                !
 ! D17   D(1,2,9,10)           175.8943         estimate D2E/DX2                !
 ! D18   D(3,2,9,10)            -0.4231         estimate D2E/DX2                !
 ! D19   D(2,3,4,5)             -0.5337         estimate D2E/DX2                !
 ! D20   D(2,3,4,15)          -177.1825         estimate D2E/DX2                !
 ! D21   D(12,3,4,5)           176.7186         estimate D2E/DX2                !
 ! D22   D(12,3,4,15)            0.0698         estimate D2E/DX2                !
 ! D23   D(2,3,12,11)           -1.2116         estimate D2E/DX2                !
 ! D24   D(2,3,12,13)          177.3935         estimate D2E/DX2                !
 ! D25   D(4,3,12,11)         -177.9481         estimate D2E/DX2                !
 ! D26   D(4,3,12,13)            0.657          estimate D2E/DX2                !
 ! D27   D(3,4,5,1)             -0.3619         estimate D2E/DX2                !
 ! D28   D(3,4,5,18)          -176.4944         estimate D2E/DX2                !
 ! D29   D(15,4,5,1)           176.2826         estimate D2E/DX2                !
 ! D30   D(15,4,5,18)            0.1501         estimate D2E/DX2                !
 ! D31   D(3,4,15,14)           -0.8385         estimate D2E/DX2                !
 ! D32   D(3,4,15,16)          177.6424         estimate D2E/DX2                !
 ! D33   D(5,4,15,14)         -176.9789         estimate D2E/DX2                !
 ! D34   D(5,4,15,16)            1.502          estimate D2E/DX2                !
 ! D35   D(1,5,18,17)         -177.1535         estimate D2E/DX2                !
 ! D36   D(1,5,18,19)            0.9624         estimate D2E/DX2                !
 ! D37   D(4,5,18,17)           -1.7722         estimate D2E/DX2                !
 ! D38   D(4,5,18,19)          176.3437         estimate D2E/DX2                !
 ! D39   D(1,6,8,21)            83.7849         estimate D2E/DX2                !
 ! D40   D(1,6,8,30)           -73.4727         estimate D2E/DX2                !
 ! D41   D(20,6,8,21)         -103.7153         estimate D2E/DX2                !
 ! D42   D(20,6,8,30)           99.0271         estimate D2E/DX2                !
 ! D43   D(1,6,20,19)            1.4343         estimate D2E/DX2                !
 ! D44   D(1,6,20,29)          179.1605         estimate D2E/DX2                !
 ! D45   D(7,6,20,19)         -173.5615         estimate D2E/DX2                !
 ! D46   D(7,6,20,29)            4.1647         estimate D2E/DX2                !
 ! D47   D(2,9,10,11)           -0.4858         estimate D2E/DX2                !
 ! D48   D(2,9,10,22)         -179.3654         estimate D2E/DX2                !
 ! D49   D(9,10,11,12)           0.6069         estimate D2E/DX2                !
 ! D50   D(9,10,11,23)        -178.3482         estimate D2E/DX2                !
 ! D51   D(22,10,11,12)        179.474          estimate D2E/DX2                !
 ! D52   D(22,10,11,23)          0.5189         estimate D2E/DX2                !
 ! D53   D(10,11,12,3)           0.1922         estimate D2E/DX2                !
 ! D54   D(10,11,12,13)       -178.1308         estimate D2E/DX2                !
 ! D55   D(23,11,12,3)         179.1388         estimate D2E/DX2                !
 ! D56   D(23,11,12,13)          0.8158         estimate D2E/DX2                !
 ! D57   D(3,12,13,14)          -0.5758         estimate D2E/DX2                !
 ! D58   D(3,12,13,24)        -179.0733         estimate D2E/DX2                !
 ! D59   D(11,12,13,14)        177.7325         estimate D2E/DX2                !
 ! D60   D(11,12,13,24)         -0.7651         estimate D2E/DX2                !
 ! D61   D(12,13,14,15)         -0.1937         estimate D2E/DX2                !
 ! D62   D(12,13,14,25)       -178.4821         estimate D2E/DX2                !
 ! D63   D(24,13,14,15)        178.3062         estimate D2E/DX2                !
 ! D64   D(24,13,14,25)          0.0178         estimate D2E/DX2                !
 ! D65   D(13,14,15,4)           0.8702         estimate D2E/DX2                !
 ! D66   D(13,14,15,16)       -177.279          estimate D2E/DX2                !
 ! D67   D(25,14,15,4)         179.151          estimate D2E/DX2                !
 ! D68   D(25,14,15,16)          1.0018         estimate D2E/DX2                !
 ! D69   D(4,15,16,17)          -1.4586         estimate D2E/DX2                !
 ! D70   D(4,15,16,26)        -179.584          estimate D2E/DX2                !
 ! D71   D(14,15,16,17)        176.6898         estimate D2E/DX2                !
 ! D72   D(14,15,16,26)         -1.4356         estimate D2E/DX2                !
 ! D73   D(15,16,17,18)         -0.1149         estimate D2E/DX2                !
 ! D74   D(15,16,17,27)       -178.0164         estimate D2E/DX2                !
 ! D75   D(26,16,17,18)        178.0167         estimate D2E/DX2                !
 ! D76   D(26,16,17,27)          0.1152         estimate D2E/DX2                !
 ! D77   D(16,17,18,5)           1.7144         estimate D2E/DX2                !
 ! D78   D(16,17,18,19)       -175.9963         estimate D2E/DX2                !
 ! D79   D(27,17,18,5)         179.6061         estimate D2E/DX2                !
 ! D80   D(27,17,18,19)          1.8954         estimate D2E/DX2                !
 ! D81   D(5,18,19,20)          -1.9986         estimate D2E/DX2                !
 ! D82   D(5,18,19,28)        -179.2506         estimate D2E/DX2                !
 ! D83   D(17,18,19,20)        175.7351         estimate D2E/DX2                !
 ! D84   D(17,18,19,28)         -1.5169         estimate D2E/DX2                !
 ! D85   D(18,19,20,6)           0.9058         estimate D2E/DX2                !
 ! D86   D(18,19,20,29)       -176.8394         estimate D2E/DX2                !
 ! D87   D(28,19,20,6)         178.1724         estimate D2E/DX2                !
 ! D88   D(28,19,20,29)          0.4272         estimate D2E/DX2                !
 --------------------------------------------------------------------------------
 Trust Radius=3.00D-01 FncErr=1.00D-07 GrdErr=1.00D-06 EigMax=2.50D+02 EigMin=1.00D-04
 Number of steps in this run=    180 maximum allowed number of steps=    180.
 GradGradGradGradGradGradGradGradGradGradGradGradGradGradGradGradGradGrad

                          Input orientation:                          
 ---------------------------------------------------------------------
 Center     Atomic      Atomic             Coordinates (Angstroms)
 Number     Number       Type             X           Y           Z
 ---------------------------------------------------------------------
      1          6           0       -0.890410   -0.662970    0.059920
      2          6           0        0.464580   -1.192170    0.076720
      3          6           0        1.302260   -0.092440    0.022870
      4          6           0        0.556990    1.037270    0.001700
      5          6           0       -0.759640    0.716640    0.028310
      6          6           0       -2.157270   -1.197730   -0.024130
      7          6           0       -2.315350   -2.610320   -0.152270
      8          6           0       -2.265670   -4.010320   -0.363210
      9          6           0        1.028700   -2.447510    0.073640
     10          6           0        2.433000   -2.536740    0.006290
     11          6           0        3.257380   -1.382800   -0.067190
     12          6           0        2.683870   -0.091980   -0.062060
     13          6           0        3.280600    1.197600   -0.160320
     14          6           0        2.483650    2.383640   -0.180300
     15          6           0        1.062170    2.320210   -0.106780
     16          6           0        0.067660    3.337660   -0.159250
     17          6           0       -1.324650    3.014070   -0.132690
     18          6           0       -1.768550    1.660380   -0.055120
     19          6           0       -3.068500    1.103960   -0.090770
     20          6           0       -3.252320   -0.308840   -0.084590
     21          1           0       -2.201440   -4.681960    0.483790
     22          1           0        2.889050   -3.524050   -0.007350
     23          1           0        4.334660   -1.501580   -0.144780
     24          1           0        4.361450    1.281430   -0.246110
     25          1           0        2.973540    3.349020   -0.281340
     26          1           0        0.369230    4.378460   -0.251540
     27          1           0       -2.055880    3.815780   -0.207280
     28          1           0       -3.935800    1.755060   -0.168340
     29          1           0       -4.262980   -0.705460   -0.165270
     30          1           0       -1.992040   -4.380800   -1.345110
 ---------------------------------------------------------------------
                    Distance matrix (angstroms):
                    1          2          3          4          5
     1  C    0.000000
     2  C    1.454762   0.000000
     3  C    2.265983   1.383479   0.000000
     4  C    2.233646   2.232615   1.353558   0.000000
     5  C    1.386154   2.268174   2.214965   1.355369   0.000000
     6  C    1.377667   2.623795   3.632110   3.516120   2.370850
     7  C    2.422323   3.129153   4.411065   4.645316   3.677160
     8  C    3.643505   3.948389   5.313094   5.794716   4.976501
     9  C    2.620640   1.376270   2.371448   3.517297   3.634840
    10  C    3.815618   2.384849   2.693223   4.036457   4.558280
    11  C    4.211707   2.802995   2.344277   3.626788   4.533566
    12  C    3.621655   2.480912   1.384218   2.408919   3.538332
    13  C    4.572478   3.700967   2.368880   2.733131   4.073137
    14  C    4.552342   4.114501   2.750988   2.357510   3.652580
    15  C    3.569275   3.567576   2.428031   1.383080   2.430777
    16  C    4.119584   4.553305   3.650067   2.357359   2.754877
    17  C    3.707598   4.575768   4.071272   2.732466   2.371359
    18  C    2.486427   3.625092   3.536712   2.408242   1.384018
    19  C    2.808705   4.216980   4.532971   3.627282   2.344148
    20  C    2.392678   3.823825   4.560984   4.041077   2.697742
    21  H    4.248617   4.410442   5.792414   6.367962   5.606347
    22  H    4.740741   3.364935   3.780842   5.122912   5.594431
    23  H    5.295897   3.888742   3.348019   4.553900   5.558988
    24  H    5.608599   4.626933   3.364300   3.820332   5.159443
    25  H    5.580558   5.200528   3.837886   3.356190   4.578421
    26  H    5.205739   5.581108   4.575455   3.356030   3.842081
    27  H    4.635614   5.613639   5.157931   3.819801   3.367552
    28  H    3.895301   5.301845   5.557616   4.552944   3.347384
    29  H    3.380347   4.758705   5.602061   5.128070   3.785926
    30  H    4.124313   4.268951   5.577976   6.137339   5.421161
                    6          7          8          9         10
     6  C    0.000000
     7  C    1.427172   0.000000
     8  C    2.835029   1.416673   0.000000
     9  C    3.423728   3.355624   3.672341   0.000000
    10  C    4.781679   4.751566   4.938164   1.408743   0.000000
    11  C    5.417983   5.706957   6.123363   2.473955   1.420063
    12  C    4.965960   5.598426   6.319970   2.882104   2.458548
    13  C    5.943617   6.768676   7.610828   4.290993   3.832947
    14  C    5.864191   6.926097   7.966946   5.051869   4.924177
    15  C    4.769437   5.976607   7.156527   4.771250   5.047962
    16  C    5.053547   6.407593   7.712253   5.869074   6.334888
    17  C    4.294683   5.711010   7.090889   5.950604   6.704531
    18  C    2.884589   4.306658   5.700779   4.971514   5.939075
    19  C    2.476400   3.790368   5.184074   5.424668   6.597774
    20  C    1.411707   2.485820   3.840841   4.788118   6.106935
    21  H    3.521334   2.170078   1.082883   3.949024   5.129133
    22  H    5.556743   5.285989   5.189820   2.150907   1.087634
    23  H    6.500157   6.741809   7.064407   3.445557   2.170412
    24  H    6.977766   7.728789   8.481453   5.011433   4.284979
    25  H    6.860343   7.968861   9.034152   6.124392   5.917524
    26  H    6.126076   7.487314   8.793566   6.865458   7.221192
    27  H    5.017879   6.431572   7.830464   6.987299   7.781399
    28  H    3.450063   4.656464   6.005574   6.508948   7.681904
    29  H    2.167087   2.724321   3.866591   5.576172   6.944002
    30  H    3.450250   2.159166   1.084554   3.856855   4.980745
                   11         12         13         14         15
    11  C    0.000000
    12  C    1.412500   0.000000
    13  C    2.582184   1.424345   0.000000
    14  C    3.846755   2.486516   1.429062   0.000000
    15  C    4.304974   2.906987   2.486876   1.424793   0.000000
    16  C    5.697853   4.314676   3.860420   2.597615   1.423730
    17  C    6.350729   5.071565   4.950622   3.860422   2.485764
    18  C    5.875463   4.784857   5.071405   4.315087   2.907064
    19  C    6.797153   5.875445   6.350171   5.698418   4.306037
    20  C    6.597718   5.940193   6.704785   6.337189   5.052447
    21  H    6.402090   6.725483   8.064544   8.503751   7.747923
    22  H    2.173522   3.438633   4.740326   5.924109   6.123949
    23  H    1.086582   2.172308   2.897733   4.303770   5.031572
    24  H    2.889482   2.175869   1.087485   2.178378   3.461752
    25  H    4.745160   3.460126   2.176589   1.087272   2.177672
    26  H    6.447287   5.037687   4.313035   2.907775   2.176583
    27  H    7.434756   6.144665   5.944333   4.760156   3.459634
    28  H    7.848454   6.873346   7.237904   6.450162   5.030198
    29  H    7.551439   6.974649   7.779927   7.420228   6.124975
    30  H    6.178794   6.473355   7.766789   8.194280   7.467610
                   16         17         18         19         20
    16  C    0.000000
    17  C    1.429665   0.000000
    18  C    2.489132   1.426724   0.000000
    19  C    3.850923   2.586753   1.414477   0.000000
    20  C    4.932018   3.841869   2.465820   1.424722   0.000000
    21  H    8.359224   7.770308   6.379898   5.878672   4.533385
    22  H    7.420672   7.779331   6.969493   7.544391   6.932530
    23  H    6.451801   7.240099   6.874242   7.848473   7.680398
    24  H    4.761540   5.945304   6.144671   7.433692   7.779752
    25  H    2.908466   4.313783   5.038859   6.448477   7.223571
    26  H    1.087532   2.178283   3.463617   4.750388   5.925730
    27  H    2.177229   1.087658   2.179784   2.897057   4.296395
    28  H    4.304927   2.899048   2.172270   1.087271   2.175739
    29  H    5.924635   4.740227   3.439697   2.169409   1.088692
    30  H    8.076091   7.523262   6.181414   5.728414   4.445006
                   21         22         23         24         25
    21  H    0.000000
    22  H    5.243573   0.000000
    23  H    7.295925   2.489791   0.000000
    24  H    8.897545   5.031660   2.784983   0.000000
    25  H    9.584492   6.879048   5.039803   2.490475   0.000000
    26  H    9.446707   8.298119   7.093018   5.052667   2.800547
    27  H    8.527036   8.852424   8.313677   6.899751   5.051576
    28  H    6.698396   8.629803   8.888575   8.311121   7.091717
    29  H    4.525901   7.689013   8.634445   8.850710   8.295752
    30  H    1.865321   5.133095   7.053923   8.581112   9.248714
                   26         27         28         29         30
    26  H    0.000000
    27  H    2.489925   0.000000
    28  H    5.042066   2.789656   0.000000
    29  H    6.878303   5.031368   2.482179   0.000000
    30  H    9.137622   8.275425   6.543070   4.478539   0.000000
 Stoichiometry    C20H10(1+,2)
 Framework group  C1[X(C20H10)]
 Deg. of freedom    84
 Full point group                 C1      NOp   1
 Largest Abelian subgroup         C1      NOp   1
 Largest concise Abelian subgroup C1      NOp   1
                         Standard orientation:                         
 ---------------------------------------------------------------------
 Center     Atomic      Atomic             Coordinates (Angstroms)
 Number     Number       Type             X           Y           Z
 ---------------------------------------------------------------------
      1          6           0       -1.147896    0.030716   -0.147176
      2          6           0       -0.327265    1.231917   -0.150999
      3          6           0        0.984364    0.795708   -0.092994
      4          6           0        1.005863   -0.557629   -0.081233
      5          6           0       -0.262088   -1.035083   -0.118190
      6          6           0       -2.496107   -0.242619   -0.072473
      7          6           0       -3.423946    0.833891    0.058141
      8          6           0       -4.173571    2.016574    0.273288
      9          6           0       -0.569338    2.586684   -0.139713
     10          6           0        0.539658    3.451759   -0.060162
     11          6           0        1.870766    2.963144    0.017213
     12          6           0        2.125104    1.573797    0.003701
     13          6           0        3.344569    0.844625    0.103548
     14          6           0        3.355162   -0.584364    0.113526
     15          6           0        2.145925   -1.333013    0.028071
     16          6           0        1.898120   -2.734405    0.069311
     17          6           0        0.566003   -3.252090    0.031768
     18          6           0       -0.563521   -2.383942   -0.045914
     19          6           0       -1.951006   -2.657708   -0.019832
     20          6           0       -2.899480   -1.594592   -0.023751
     21          1           0       -4.494616    2.613412   -0.571312
     22          1           0        0.359429    4.524167   -0.039963
     23          1           0        2.692985    3.668150    0.104298
     24          1           0        4.283948    1.384265    0.198315
     25          1           0        4.303560   -1.106068    0.216120
     26          1           0        2.733581   -3.424523    0.161348
     27          1           0        0.413836   -4.327015    0.097955
     28          1           0       -2.300490   -3.685004    0.048583
     29          1           0       -3.958200   -1.837516    0.049390
     30          1           0       -4.161934    2.469908    1.258483
 ---------------------------------------------------------------------
 Rotational constants (GHZ):           0.5077261           0.4184518           0.2303594
 Standard basis: 6-31G(d) (6D, 7F)
 There are   320 symmetry adapted cartesian basis functions of A   symmetry.
 There are   320 symmetry adapted basis functions of A   symmetry.
   320 basis functions,   600 primitive gaussians,   320 cartesian basis functions
    65 alpha electrons       64 beta electrons
       nuclear repulsion energy      1343.0938046800 Hartrees.
 NAtoms=   30 NActive=   30 NUniq=   30 SFac= 1.00D+00 NAtFMM=   60 NAOKFM=F Big=F
 Integral buffers will be    131072 words long.
 Raffenetti 2 integral format.
 Two-electron integral symmetry is turned on.
 One-electron integrals computed using PRISM.
 NBasis=   320 RedAO= T EigKep=  1.47D-04  NBF=   320
 NBsUse=   320 1.00D-06 EigRej= -1.00D+00 NBFU=   320
 ExpMin= 1.61D-01 ExpMax= 3.05D+03 ExpMxC= 4.57D+02 IAcc=3 IRadAn=         5 AccDes= 0.00D+00
 Harris functional with IExCor= 1009 and IRadAn=       5 diagonalized for initial guess.
 HarFok:  IExCor= 1009 AccDes= 0.00D+00 IRadAn=         5 IDoV= 1 UseB2=F ITyADJ=14
 ICtDFT=  3500011 ScaDFX=  1.000000  1.000000  1.000000  1.000000
 FoFCou: FMM=F IPFlag=           0 FMFlag=      100000 FMFlg1=           0
         NFxFlg=           0 DoJE=T BraDBF=F KetDBF=T FulRan=T
         wScrn=  0.000000 ICntrl=       500 IOpCl=  0 I1Cent=   200000004 NGrid=           0
         NMat0=    1 NMatS0=      1 NMatT0=    0 NMatD0=    1 NMtDS0=    0 NMtDT0=    0
 Petite list used in FoFCou.
 Initial guess <Sx>= 0.0000 <Sy>= 0.0000 <Sz>= 0.5000 <S**2>= 0.7500 S= 0.5000
 Requested convergence on RMS density matrix=1.00D-08 within 128 cycles.
 Requested convergence on MAX density matrix=1.00D-06.
 Requested convergence on             energy=1.00D-06.
 No special actions if energy rises.
 Restarting incremental Fock formation.
 SCF Done:  E(UM062X) =  -767.409413598     A.U. after   25 cycles
            NFock= 25  Conv=0.59D-08     -V/T= 2.0086
 <Sx>= 0.0000 <Sy>= 0.0000 <Sz>= 0.5000 <S**2>= 0.7784 S= 0.5141
 <L.S>=  0.00000000000    
 Annihilation of the first spin contaminant:
 S**2 before annihilation     0.7784,   after     0.7503

 **********************************************************************

            Population analysis using the SCF Density.

 **********************************************************************

 Orbital symmetries:
 Alpha Orbitals:
       Occupied  (A) (A) (A) (A) (A) (A) (A) (A) (A) (A) (A) (A)
                 (A) (A) (A) (A) (A) (A) (A) (A) (A) (A) (A) (A)
                 (A) (A) (A) (A) (A) (A) (A) (A) (A) (A) (A) (A)
                 (A) (A) (A) (A) (A) (A) (A) (A) (A) (A) (A) (A)
                 (A) (A) (A) (A) (A) (A) (A) (A) (A) (A) (A) (A)
                 (A) (A) (A) (A) (A)
       Virtual   (A) (A) (A) (A) (A) (A) (A) (A) (A) (A) (A) (A)
                 (A) (A) (A) (A) (A) (A) (A) (A) (A) (A) (A) (A)
                 (A) (A) (A) (A) (A) (A) (A) (A) (A) (A) (A) (A)
                 (A) (A) (A) (A) (A) (A) (A) (A) (A) (A) (A) (A)
                 (A) (A) (A) (A) (A) (A) (A) (A) (A) (A) (A) (A)
                 (A) (A) (A) (A) (A) (A) (A) (A) (A) (A) (A) (A)
                 (A) (A) (A) (A) (A) (A) (A) (A) (A) (A) (A) (A)
                 (A) (A) (A) (A) (A) (A) (A) (A) (A) (A) (A) (A)
                 (A) (A) (A) (A) (A) (A) (A) (A) (A) (A) (A) (A)
                 (A) (A) (A) (A) (A) (A) (A) (A) (A) (A) (A) (A)
                 (A) (A) (A) (A) (A) (A) (A) (A) (A) (A) (A) (A)
                 (A) (A) (A) (A) (A) (A) (A) (A) (A) (A) (A) (A)
                 (A) (A) (A) (A) (A) (A) (A) (A) (A) (A) (A) (A)
                 (A) (A) (A) (A) (A) (A) (A) (A) (A) (A) (A) (A)
                 (A) (A) (A) (A) (A) (A) (A) (A) (A) (A) (A) (A)
                 (A) (A) (A) (A) (A) (A) (A) (A) (A) (A) (A) (A)
                 (A) (A) (A) (A) (A) (A) (A) (A) (A) (A) (A) (A)
                 (A) (A) (A) (A) (A) (A) (A) (A) (A) (A) (A) (A)
                 (A) (A) (A) (A) (A) (A) (A) (A) (A) (A) (A) (A)
                 (A) (A) (A) (A) (A) (A) (A) (A) (A) (A) (A) (A)
                 (A) (A) (A) (A) (A) (A) (A) (A) (A) (A) (A) (A)
                 (A) (A) (A)
 Beta  Orbitals:
       Occupied  (A) (A) (A) (A) (A) (A) (A) (A) (A) (A) (A) (A)
                 (A) (A) (A) (A) (A) (A) (A) (A) (A) (A) (A) (A)
                 (A) (A) (A) (A) (A) (A) (A) (A) (A) (A) (A) (A)
                 (A) (A) (A) (A) (A) (A) (A) (A) (A) (A) (A) (A)
                 (A) (A) (A) (A) (A) (A) (A) (A) (A) (A) (A) (A)
                 (A) (A) (A) (A)
       Virtual   (A) (A) (A) (A) (A) (A) (A) (A) (A) (A) (A) (A)
                 (A) (A) (A) (A) (A) (A) (A) (A) (A) (A) (A) (A)
                 (A) (A) (A) (A) (A) (A) (A) (A) (A) (A) (A) (A)
                 (A) (A) (A) (A) (A) (A) (A) (A) (A) (A) (A) (A)
                 (A) (A) (A) (A) (A) (A) (A) (A) (A) (A) (A) (A)
                 (A) (A) (A) (A) (A) (A) (A) (A) (A) (A) (A) (A)
                 (A) (A) (A) (A) (A) (A) (A) (A) (A) (A) (A) (A)
                 (A) (A) (A) (A) (A) (A) (A) (A) (A) (A) (A) (A)
                 (A) (A) (A) (A) (A) (A) (A) (A) (A) (A) (A) (A)
                 (A) (A) (A) (A) (A) (A) (A) (A) (A) (A) (A) (A)
                 (A) (A) (A) (A) (A) (A) (A) (A) (A) (A) (A) (A)
                 (A) (A) (A) (A) (A) (A) (A) (A) (A) (A) (A) (A)
                 (A) (A) (A) (A) (A) (A) (A) (A) (A) (A) (A) (A)
                 (A) (A) (A) (A) (A) (A) (A) (A) (A) (A) (A) (A)
                 (A) (A) (A) (A) (A) (A) (A) (A) (A) (A) (A) (A)
                 (A) (A) (A) (A) (A) (A) (A) (A) (A) (A) (A) (A)
                 (A) (A) (A) (A) (A) (A) (A) (A) (A) (A) (A) (A)
                 (A) (A) (A) (A) (A) (A) (A) (A) (A) (A) (A) (A)
                 (A) (A) (A) (A) (A) (A) (A) (A) (A) (A) (A) (A)
                 (A) (A) (A) (A) (A) (A) (A) (A) (A) (A) (A) (A)
                 (A) (A) (A) (A) (A) (A) (A) (A) (A) (A) (A) (A)
                 (A) (A) (A) (A)
 The electronic state is 2-A.
 Alpha  occ. eigenvalues --  -10.81309 -10.75351 -10.75251 -10.73388 -10.73354
 Alpha  occ. eigenvalues --  -10.72275 -10.72031 -10.71396 -10.71105 -10.70360
 Alpha  occ. eigenvalues --  -10.70177 -10.69866 -10.69786 -10.69382 -10.69341
 Alpha  occ. eigenvalues --  -10.69205 -10.69122 -10.68159 -10.67107 -10.66928
 Alpha  occ. eigenvalues --   -1.18303  -1.11956  -1.09699  -1.05962  -1.05065
 Alpha  occ. eigenvalues --   -1.02209  -0.99530  -0.96590  -0.95173  -0.94935
 Alpha  occ. eigenvalues --   -0.89671  -0.86299  -0.84929  -0.82713  -0.81618
 Alpha  occ. eigenvalues --   -0.79935  -0.73975  -0.72511  -0.71705  -0.71355
 Alpha  occ. eigenvalues --   -0.69688  -0.67933  -0.67003  -0.65176  -0.64865
 Alpha  occ. eigenvalues --   -0.63957  -0.63659  -0.62836  -0.61737  -0.60644
 Alpha  occ. eigenvalues --   -0.58944  -0.58760  -0.57202  -0.56551  -0.55276
 Alpha  occ. eigenvalues --   -0.53654  -0.52498  -0.51125  -0.50793  -0.49509
 Alpha  occ. eigenvalues --   -0.46923  -0.45100  -0.41971  -0.40470  -0.40063
 Alpha virt. eigenvalues --   -0.25785  -0.17831  -0.14510  -0.13860  -0.09910
 Alpha virt. eigenvalues --   -0.08298  -0.05133  -0.00926   0.01030   0.01700
 Alpha virt. eigenvalues --    0.03617   0.04435   0.05536   0.06662   0.07709
 Alpha virt. eigenvalues --    0.08531   0.09542   0.09929   0.10196   0.12091
 Alpha virt. eigenvalues --    0.12860   0.12996   0.14613   0.15894   0.16283
 Alpha virt. eigenvalues --    0.16842   0.18811   0.19421   0.20178   0.22161
 Alpha virt. eigenvalues --    0.23147   0.24248   0.25266   0.26590   0.30270
 Alpha virt. eigenvalues --    0.31472   0.32467   0.34984   0.36233   0.39102
 Alpha virt. eigenvalues --    0.39852   0.40537   0.41462   0.43146   0.43852
 Alpha virt. eigenvalues --    0.44195   0.44553   0.45131   0.45491   0.46274
 Alpha virt. eigenvalues --    0.47228   0.47677   0.47932   0.48361   0.48559
 Alpha virt. eigenvalues --    0.49316   0.49669   0.49864   0.50583   0.51554
 Alpha virt. eigenvalues --    0.52091   0.52379   0.52922   0.53639   0.54463
 Alpha virt. eigenvalues --    0.54537   0.55298   0.56201   0.57270   0.58099
 Alpha virt. eigenvalues --    0.59216   0.60114   0.61284   0.62633   0.63176
 Alpha virt. eigenvalues --    0.63477   0.65307   0.66001   0.66131   0.67526
 Alpha virt. eigenvalues --    0.69632   0.73152   0.75111   0.75740   0.76192
 Alpha virt. eigenvalues --    0.76602   0.77950   0.78400   0.78784   0.79486
 Alpha virt. eigenvalues --    0.79553   0.80137   0.80962   0.82499   0.82982
 Alpha virt. eigenvalues --    0.84174   0.84540   0.86079   0.87305   0.87726
 Alpha virt. eigenvalues --    0.87938   0.89261   0.91210   0.92515   0.94197
 Alpha virt. eigenvalues --    0.95592   0.97959   0.98669   0.99482   1.01075
 Alpha virt. eigenvalues --    1.03780   1.05991   1.07333   1.08798   1.09797
 Alpha virt. eigenvalues --    1.12473   1.12657   1.14547   1.14800   1.17775
 Alpha virt. eigenvalues --    1.18151   1.19077   1.19294   1.21956   1.22983
 Alpha virt. eigenvalues --    1.26145   1.26948   1.29059   1.30712   1.31819
 Alpha virt. eigenvalues --    1.32372   1.34984   1.36846   1.37826   1.38428
 Alpha virt. eigenvalues --    1.38513   1.38718   1.39440   1.41025   1.42007
 Alpha virt. eigenvalues --    1.42989   1.43769   1.46385   1.47378   1.51806
 Alpha virt. eigenvalues --    1.53341   1.56115   1.59170   1.61900   1.63471
 Alpha virt. eigenvalues --    1.64565   1.66386   1.67165   1.67999   1.69389
 Alpha virt. eigenvalues --    1.71099   1.71837   1.73833   1.74645   1.75058
 Alpha virt. eigenvalues --    1.77177   1.78056   1.80124   1.82605   1.83247
 Alpha virt. eigenvalues --    1.85216   1.86365   1.87392   1.88449   1.89878
 Alpha virt. eigenvalues --    1.90355   1.91728   1.92732   1.94720   1.95365
 Alpha virt. eigenvalues --    1.97540   1.98699   1.99561   2.00297   2.01700
 Alpha virt. eigenvalues --    2.04155   2.05619   2.07137   2.08911   2.10841
 Alpha virt. eigenvalues --    2.11531   2.11908   2.12551   2.13025   2.14712
 Alpha virt. eigenvalues --    2.16399   2.17744   2.18599   2.21186   2.21741
 Alpha virt. eigenvalues --    2.22128   2.22835   2.24885   2.25704   2.27652
 Alpha virt. eigenvalues --    2.29732   2.32758   2.32895   2.36015   2.43076
 Alpha virt. eigenvalues --    2.45427   2.48060   2.48724   2.49835   2.49963
 Alpha virt. eigenvalues --    2.54547   2.57692   2.59153   2.60637   2.63336
 Alpha virt. eigenvalues --    2.63840   2.65348   2.67968   2.69326   2.70789
 Alpha virt. eigenvalues --    2.73829   2.76686   2.78881   2.80304   2.82522
 Alpha virt. eigenvalues --    2.84031   2.88972   2.92614   2.96851   3.03591
 Alpha virt. eigenvalues --    3.13845   3.24460   3.30232   3.37069   3.51469
 Alpha virt. eigenvalues --    3.88810   3.93827   3.94703   3.96042   3.98229
 Alpha virt. eigenvalues --    3.98806   4.01927   4.03502   4.04670   4.05520
 Alpha virt. eigenvalues --    4.12697   4.17372   4.21723   4.27783   4.33290
 Alpha virt. eigenvalues --    4.34095   4.41664   4.48341   4.78171   4.83866
  Beta  occ. eigenvalues --  -10.81336 -10.75334 -10.75242 -10.73368 -10.72276
  Beta  occ. eigenvalues --  -10.72228 -10.72026 -10.71390 -10.71108 -10.70272
  Beta  occ. eigenvalues --  -10.70178 -10.69861 -10.69799 -10.69390 -10.69331
  Beta  occ. eigenvalues --  -10.69224 -10.69129 -10.68166 -10.67040 -10.66923
  Beta  occ. eigenvalues --   -1.18189  -1.11831  -1.09406  -1.05942  -1.04730
  Beta  occ. eigenvalues --   -1.01805  -0.99255  -0.96249  -0.94882  -0.94632
  Beta  occ. eigenvalues --   -0.89411  -0.86160  -0.84345  -0.82493  -0.81314
  Beta  occ. eigenvalues --   -0.79771  -0.73698  -0.72313  -0.71429  -0.71016
  Beta  occ. eigenvalues --   -0.69272  -0.68021  -0.66248  -0.65125  -0.64567
  Beta  occ. eigenvalues --   -0.63705  -0.63481  -0.62345  -0.61386  -0.60388
  Beta  occ. eigenvalues --   -0.58714  -0.58587  -0.56614  -0.56227  -0.54936
  Beta  occ. eigenvalues --   -0.52990  -0.52354  -0.51085  -0.50438  -0.49350
  Beta  occ. eigenvalues --   -0.46239  -0.41589  -0.40293  -0.40124
  Beta virt. eigenvalues --   -0.25917  -0.17482  -0.16819  -0.14567  -0.13434
  Beta virt. eigenvalues --   -0.09360  -0.08211  -0.05088  -0.00570   0.01198
  Beta virt. eigenvalues --    0.02044   0.03628   0.04443   0.05540   0.06645
  Beta virt. eigenvalues --    0.07716   0.08606   0.09599   0.09925   0.10352
  Beta virt. eigenvalues --    0.12114   0.12722   0.13252   0.14818   0.15951
  Beta virt. eigenvalues --    0.16371   0.17278   0.18891   0.19439   0.20431
  Beta virt. eigenvalues --    0.22395   0.23049   0.24665   0.25512   0.26445
  Beta virt. eigenvalues --    0.30591   0.30848   0.32054   0.34861   0.36260
  Beta virt. eigenvalues --    0.39380   0.39917   0.40741   0.41455   0.43097
  Beta virt. eigenvalues --    0.44044   0.44200   0.44406   0.45175   0.45601
  Beta virt. eigenvalues --    0.46407   0.47206   0.47826   0.48008   0.48568
  Beta virt. eigenvalues --    0.48679   0.49411   0.49651   0.50010   0.50854
  Beta virt. eigenvalues --    0.51503   0.52085   0.52430   0.53042   0.53854
  Beta virt. eigenvalues --    0.54493   0.54918   0.55324   0.56245   0.57231
  Beta virt. eigenvalues --    0.58499   0.59250   0.60047   0.62095   0.62521
  Beta virt. eigenvalues --    0.62922   0.63516   0.65341   0.66101   0.66414
  Beta virt. eigenvalues --    0.67713   0.69540   0.72937   0.75041   0.75786
  Beta virt. eigenvalues --    0.76213   0.76713   0.77942   0.78367   0.78813
  Beta virt. eigenvalues --    0.79534   0.79685   0.80125   0.80925   0.82612
  Beta virt. eigenvalues --    0.83059   0.84153   0.84544   0.86056   0.87293
  Beta virt. eigenvalues --    0.87724   0.88182   0.89452   0.91230   0.92556
  Beta virt. eigenvalues --    0.94150   0.95716   0.98009   0.98543   0.99537
  Beta virt. eigenvalues --    1.01110   1.03623   1.05996   1.07494   1.09059
  Beta virt. eigenvalues --    1.09982   1.12220   1.12791   1.14489   1.14882
  Beta virt. eigenvalues --    1.17943   1.18463   1.19140   1.19712   1.22076
  Beta virt. eigenvalues --    1.23013   1.26203   1.27113   1.29156   1.30789
  Beta virt. eigenvalues --    1.31990   1.32335   1.35062   1.36871   1.38191
  Beta virt. eigenvalues --    1.38437   1.38450   1.39349   1.40841   1.41437
  Beta virt. eigenvalues --    1.42023   1.43141   1.43790   1.46374   1.47270
  Beta virt. eigenvalues --    1.51859   1.53848   1.56368   1.59228   1.62439
  Beta virt. eigenvalues --    1.63726   1.64678   1.66473   1.67231   1.67981
  Beta virt. eigenvalues --    1.69458   1.71255   1.71794   1.73983   1.75039
  Beta virt. eigenvalues --    1.75331   1.77339   1.78278   1.80612   1.83081
  Beta virt. eigenvalues --    1.83815   1.85341   1.86544   1.87590   1.88833
  Beta virt. eigenvalues --    1.89936   1.90470   1.91834   1.93143   1.95014
  Beta virt. eigenvalues --    1.95457   1.97885   1.98870   1.99782   2.00548
  Beta virt. eigenvalues --    2.01923   2.04837   2.05797   2.07779   2.09113
  Beta virt. eigenvalues --    2.10912   2.11881   2.12066   2.12754   2.13460
  Beta virt. eigenvalues --    2.15067   2.16685   2.17911   2.19078   2.21439
  Beta virt. eigenvalues --    2.21870   2.22300   2.23109   2.25195   2.25934
  Beta virt. eigenvalues --    2.27714   2.29860   2.32834   2.33167   2.36205
  Beta virt. eigenvalues --    2.43460   2.45609   2.48535   2.49052   2.49895
  Beta virt. eigenvalues --    2.50167   2.54793   2.58030   2.59275   2.60808
  Beta virt. eigenvalues --    2.63811   2.63881   2.65841   2.68298   2.69838
  Beta virt. eigenvalues --    2.70901   2.73885   2.76719   2.79226   2.80354
  Beta virt. eigenvalues --    2.82672   2.84261   2.89303   2.92631   2.96961
  Beta virt. eigenvalues --    3.03625   3.14251   3.24887   3.30621   3.37114
  Beta virt. eigenvalues --    3.51529   3.88906   3.94716   3.95585   3.96121
  Beta virt. eigenvalues --    3.98338   3.98961   4.02199   4.04173   4.04688
  Beta virt. eigenvalues --    4.05883   4.13060   4.17522   4.21947   4.28331
  Beta virt. eigenvalues --    4.33332   4.34038   4.41874   4.48454   4.78362
  Beta virt. eigenvalues --    4.83892
          Condensed to atoms (all electrons):
               1          2          3          4          5          6
     1  C    5.306809   0.188254  -0.006540  -0.030688   0.310805   0.380369
     2  C    0.188254   5.342982   0.337440  -0.038442  -0.056209  -0.151543
     3  C   -0.006540   0.337440   5.321462   0.236407  -0.013419   0.018343
     4  C   -0.030688  -0.038442   0.236407   5.451430   0.233734   0.030843
     5  C    0.310805  -0.056209  -0.013419   0.233734   5.471653  -0.046502
     6  C    0.380369  -0.151543   0.018343   0.030843  -0.046502   5.238070
     7  C   -0.019860  -0.029756  -0.000304  -0.000374   0.012630   0.362677
     8  C   -0.000850  -0.001995  -0.000033  -0.000000   0.000073  -0.070496
     9  C   -0.114531   0.471670  -0.041013   0.028854   0.014000  -0.017295
    10  C    0.009322  -0.023841  -0.053024  -0.003380  -0.000326   0.000080
    11  C   -0.000902  -0.063131   0.003650   0.027342  -0.001021   0.000013
    12  C    0.021725  -0.110227   0.441594  -0.082068   0.029666   0.000005
    13  C   -0.000475   0.018150   0.009473  -0.096816  -0.002375   0.000003
    14  C   -0.000414  -0.002272  -0.093045   0.021391   0.023327  -0.000005
    15  C    0.025606   0.025352  -0.115425   0.448032  -0.116711  -0.000328
    16  C   -0.003012  -0.000608   0.024474   0.028516  -0.094445   0.000150
    17  C    0.017193  -0.000435  -0.002670  -0.088525   0.003632  -0.000946
    18  C   -0.121703   0.021848   0.027971  -0.078491   0.414679  -0.058603
    19  C   -0.079511  -0.001983  -0.000592   0.022843   0.018144   0.006084
    20  C   -0.006843   0.009958  -0.000361  -0.002320  -0.068914   0.409472
    21  H    0.000034  -0.000003  -0.000000  -0.000000   0.000003   0.001738
    22  H   -0.000165   0.002199   0.001114   0.000010   0.000003  -0.000001
    23  H    0.000007   0.000205   0.004592  -0.000121   0.000004  -0.000000
    24  H    0.000002  -0.000176   0.003009   0.001263   0.000018  -0.000000
    25  H    0.000002   0.000022   0.001512   0.003058  -0.000239  -0.000000
    26  H    0.000024   0.000003  -0.000219   0.002736   0.001404  -0.000001
    27  H   -0.000179   0.000003   0.000014   0.001221   0.003235   0.000012
    28  H    0.001349   0.000020   0.000002  -0.000223   0.003183   0.001686
    29  H    0.002754  -0.000070   0.000001   0.000001   0.000742  -0.033800
    30  H    0.000020   0.000055   0.000000  -0.000000   0.000005   0.001104
               7          8          9         10         11         12
     1  C   -0.019860  -0.000850  -0.114531   0.009322  -0.000902   0.021725
     2  C   -0.029756  -0.001995   0.471670  -0.023841  -0.063131  -0.110227
     3  C   -0.000304  -0.000033  -0.041013  -0.053024   0.003650   0.441594
     4  C   -0.000374  -0.000000   0.028854  -0.003380   0.027342  -0.082068
     5  C    0.012630   0.000073   0.014000  -0.000326  -0.001021   0.029666
     6  C    0.362677  -0.070496  -0.017295   0.000080   0.000013   0.000005
     7  C    4.910732   0.636533   0.004417   0.000295  -0.000021   0.000047
     8  C    0.636533   5.142433   0.003339   0.000170  -0.000004   0.000003
     9  C    0.004417   0.003339   5.297297   0.430343   0.002393  -0.085238
    10  C    0.000295   0.000170   0.430343   4.991007   0.509269   0.002169
    11  C   -0.000021  -0.000004   0.002393   0.509269   5.086055   0.399283
    12  C    0.000047   0.000003  -0.085238   0.002169   0.399283   4.883663
    13  C    0.000000   0.000000  -0.001722   0.006439  -0.104109   0.409204
    14  C   -0.000000  -0.000000   0.000152  -0.000243   0.006283   0.011399
    15  C    0.000004   0.000000  -0.000418   0.000051  -0.000121  -0.059812
    16  C    0.000001   0.000000  -0.000004   0.000001  -0.000002  -0.000612
    17  C    0.000008  -0.000000   0.000001  -0.000000   0.000001   0.000106
    18  C   -0.000107  -0.000004   0.000029   0.000003  -0.000006  -0.000462
    19  C    0.004864  -0.000032   0.000006   0.000000  -0.000000  -0.000001
    20  C   -0.059291   0.001825  -0.000064   0.000001   0.000000  -0.000001
    21  H   -0.013173   0.352595   0.000082  -0.000002  -0.000000   0.000000
    22  H    0.000006   0.000006  -0.031385   0.365645  -0.027359   0.001749
    23  H   -0.000000  -0.000000   0.003979  -0.034599   0.363055  -0.032264
    24  H    0.000000   0.000000   0.000003   0.000012  -0.002826  -0.028724
    25  H    0.000000  -0.000000   0.000000   0.000001  -0.000112   0.000960
    26  H   -0.000000  -0.000000  -0.000000   0.000000  -0.000000   0.000010
    27  H   -0.000000   0.000000  -0.000000   0.000000   0.000000  -0.000000
    28  H   -0.000141   0.000000  -0.000000   0.000000   0.000000  -0.000000
    29  H   -0.000840   0.000379   0.000001  -0.000000   0.000000  -0.000000
    30  H   -0.015786   0.355459   0.000277  -0.000004  -0.000000  -0.000000
              13         14         15         16         17         18
     1  C   -0.000475  -0.000414   0.025606  -0.003012   0.017193  -0.121703
     2  C    0.018150  -0.002272   0.025352  -0.000608  -0.000435   0.021848
     3  C    0.009473  -0.093045  -0.115425   0.024474  -0.002670   0.027971
     4  C   -0.096816   0.021391   0.448032   0.028516  -0.088525  -0.078491
     5  C   -0.002375   0.023327  -0.116711  -0.094445   0.003632   0.414679
     6  C    0.000003  -0.000005  -0.000328   0.000150  -0.000946  -0.058603
     7  C    0.000000  -0.000000   0.000004   0.000001   0.000008  -0.000107
     8  C    0.000000  -0.000000   0.000000   0.000000  -0.000000  -0.000004
     9  C   -0.001722   0.000152  -0.000418  -0.000004   0.000001   0.000029
    10  C    0.006439  -0.000243   0.000051   0.000001  -0.000000   0.000003
    11  C   -0.104109   0.006283  -0.000121  -0.000002   0.000001  -0.000006
    12  C    0.409204   0.011399  -0.059812  -0.000612   0.000106  -0.000462
    13  C    5.127845   0.474429   0.003808   0.006271  -0.000262   0.000129
    14  C    0.474429   5.138660   0.410635  -0.103652   0.006127  -0.000782
    15  C    0.003808   0.410635   4.874500   0.374037  -0.001223  -0.058268
    16  C    0.006271  -0.103652   0.374037   5.144295   0.465059   0.018990
    17  C   -0.000262   0.006127  -0.001223   0.465059   5.135995   0.423675
    18  C    0.000129  -0.000782  -0.058268   0.018990   0.423675   4.821899
    19  C    0.000001  -0.000001  -0.000046   0.006154  -0.098487   0.398186
    20  C   -0.000000   0.000001   0.000005  -0.000273   0.006109  -0.006296
    21  H    0.000000  -0.000000   0.000000   0.000000   0.000000   0.000000
    22  H   -0.000098   0.000001  -0.000000  -0.000000   0.000000  -0.000000
    23  H   -0.003029   0.000023  -0.000004  -0.000000   0.000000  -0.000000
    24  H    0.363754  -0.027375   0.001058  -0.000108   0.000001  -0.000000
    25  H   -0.026609   0.360827  -0.027772  -0.002166  -0.000017   0.000013
    26  H   -0.000007  -0.001818  -0.025578   0.359103  -0.026872   0.000789
    27  H    0.000001  -0.000103   0.001078  -0.027316   0.364176  -0.027428
    28  H    0.000000  -0.000000   0.000012   0.000005  -0.002083  -0.026775
    29  H    0.000000   0.000000  -0.000000   0.000001  -0.000097   0.001718
    30  H    0.000000   0.000000   0.000000  -0.000000  -0.000000   0.000000
              19         20         21         22         23         24
     1  C   -0.079511  -0.006843   0.000034  -0.000165   0.000007   0.000002
     2  C   -0.001983   0.009958  -0.000003   0.002199   0.000205  -0.000176
     3  C   -0.000592  -0.000361  -0.000000   0.001114   0.004592   0.003009
     4  C    0.022843  -0.002320  -0.000000   0.000010  -0.000121   0.001263
     5  C    0.018144  -0.068914   0.000003   0.000003   0.000004   0.000018
     6  C    0.006084   0.409472   0.001738  -0.000001  -0.000000  -0.000000
     7  C    0.004864  -0.059291  -0.013173   0.000006  -0.000000   0.000000
     8  C   -0.000032   0.001825   0.352595   0.000006  -0.000000   0.000000
     9  C    0.000006  -0.000064   0.000082  -0.031385   0.003979   0.000003
    10  C    0.000000   0.000001  -0.000002   0.365645  -0.034599   0.000012
    11  C   -0.000000   0.000000  -0.000000  -0.027359   0.363055  -0.002826
    12  C   -0.000001  -0.000001   0.000000   0.001749  -0.032264  -0.028724
    13  C    0.000001  -0.000000   0.000000  -0.000098  -0.003029   0.363754
    14  C   -0.000001   0.000001  -0.000000   0.000001   0.000023  -0.027375
    15  C   -0.000046   0.000005   0.000000  -0.000000  -0.000004   0.001058
    16  C    0.006154  -0.000273   0.000000  -0.000000  -0.000000  -0.000108
    17  C   -0.098487   0.006109   0.000000   0.000000   0.000000   0.000001
    18  C    0.398186  -0.006296   0.000000  -0.000000  -0.000000  -0.000000
    19  C    5.127516   0.505477   0.000001  -0.000000   0.000000  -0.000000
    20  C    0.505477   4.996351  -0.000039  -0.000000   0.000000   0.000000
    21  H    0.000001  -0.000039   0.396628   0.000000  -0.000000   0.000000
    22  H   -0.000000  -0.000000   0.000000   0.474426  -0.003179  -0.000002
    23  H    0.000000   0.000000  -0.000000  -0.003179   0.480332   0.002837
    24  H   -0.000000   0.000000   0.000000  -0.000002   0.002837   0.478855
    25  H   -0.000000  -0.000000   0.000000  -0.000000  -0.000002  -0.002254
    26  H   -0.000109   0.000002   0.000000  -0.000000   0.000000  -0.000003
    27  H   -0.002484  -0.000011  -0.000000  -0.000000  -0.000000  -0.000000
    28  H    0.359118  -0.026336  -0.000000  -0.000000  -0.000000  -0.000000
    29  H   -0.022297   0.368368  -0.000001   0.000000  -0.000000  -0.000000
    30  H    0.000002  -0.000040  -0.017476   0.000000  -0.000000  -0.000000
              25         26         27         28         29         30
     1  C    0.000002   0.000024  -0.000179   0.001349   0.002754   0.000020
     2  C    0.000022   0.000003   0.000003   0.000020  -0.000070   0.000055
     3  C    0.001512  -0.000219   0.000014   0.000002   0.000001   0.000000
     4  C    0.003058   0.002736   0.001221  -0.000223   0.000001  -0.000000
     5  C   -0.000239   0.001404   0.003235   0.003183   0.000742   0.000005
     6  C   -0.000000  -0.000001   0.000012   0.001686  -0.033800   0.001104
     7  C    0.000000  -0.000000  -0.000000  -0.000141  -0.000840  -0.015786
     8  C   -0.000000  -0.000000   0.000000   0.000000   0.000379   0.355459
     9  C    0.000000  -0.000000  -0.000000  -0.000000   0.000001   0.000277
    10  C    0.000001   0.000000   0.000000   0.000000  -0.000000  -0.000004
    11  C   -0.000112  -0.000000   0.000000   0.000000   0.000000  -0.000000
    12  C    0.000960   0.000010  -0.000000  -0.000000  -0.000000  -0.000000
    13  C   -0.026609  -0.000007   0.000001   0.000000   0.000000   0.000000
    14  C    0.360827  -0.001818  -0.000103  -0.000000   0.000000   0.000000
    15  C   -0.027772  -0.025578   0.001078   0.000012  -0.000000   0.000000
    16  C   -0.002166   0.359103  -0.027316   0.000005   0.000001  -0.000000
    17  C   -0.000017  -0.026872   0.364176  -0.002083  -0.000097  -0.000000
    18  C    0.000013   0.000789  -0.027428  -0.026775   0.001718   0.000000
    19  C   -0.000000  -0.000109  -0.002484   0.359118  -0.022297   0.000002
    20  C   -0.000000   0.000002  -0.000011  -0.026336   0.368368  -0.000040
    21  H    0.000000   0.000000  -0.000000  -0.000000  -0.000001  -0.017476
    22  H   -0.000000  -0.000000  -0.000000  -0.000000   0.000000   0.000000
    23  H   -0.000002   0.000000  -0.000000  -0.000000  -0.000000  -0.000000
    24  H   -0.002254  -0.000003  -0.000000  -0.000000  -0.000000  -0.000000
    25  H    0.481615   0.002870  -0.000002   0.000000  -0.000000   0.000000
    26  H    0.002870   0.465575  -0.002083  -0.000003  -0.000000   0.000000
    27  H   -0.000002  -0.002083   0.471760   0.002825  -0.000002  -0.000000
    28  H    0.000000  -0.000003   0.002825   0.467077  -0.002340  -0.000000
    29  H   -0.000000  -0.000000  -0.000002  -0.002340   0.454440  -0.000001
    30  H    0.000000   0.000000  -0.000000  -0.000000  -0.000001   0.396241
          Atomic-Atomic Spin Densities.
               1          2          3          4          5          6
     1  C   -0.002557  -0.001002   0.004527  -0.000156   0.005624   0.003350
     2  C   -0.001002  -0.065068   0.011453  -0.006784   0.003740  -0.005152
     3  C    0.004527   0.011453   0.096466  -0.048701  -0.013697   0.002117
     4  C   -0.000156  -0.006784  -0.048701   0.052637   0.001478  -0.000513
     5  C    0.005624   0.003740  -0.013697   0.001478  -0.004743   0.002358
     6  C    0.003350  -0.005152   0.002117  -0.000513   0.002358   0.014432
     7  C   -0.002706   0.002173   0.000338  -0.000048  -0.000227  -0.005526
     8  C   -0.000566   0.000275   0.000027  -0.000001  -0.000016   0.000459
     9  C    0.002175  -0.027222  -0.007486   0.009541   0.001007  -0.000791
    10  C   -0.000399   0.000874  -0.000180  -0.000926  -0.000072   0.000060
    11  C    0.000067   0.000446   0.000661   0.003589   0.000138  -0.000012
    12  C    0.000739   0.015381  -0.002828  -0.006792  -0.000802   0.000074
    13  C    0.000119   0.001064  -0.002391  -0.010638  -0.000398   0.000003
    14  C   -0.000053  -0.000094  -0.001301   0.005695   0.000503  -0.000002
    15  C    0.000055  -0.000463   0.007902  -0.010612  -0.001375   0.000010
    16  C    0.000037   0.000018  -0.000020   0.000310   0.000085   0.000004
    17  C    0.000039   0.000034  -0.000244  -0.001050   0.000810  -0.000046
    18  C   -0.000208   0.000431  -0.000062   0.000351  -0.002016  -0.000734
    19  C   -0.001034  -0.000152   0.000073   0.000145   0.000901   0.001087
    20  C    0.001773   0.000561  -0.000170  -0.000080  -0.001023  -0.000181
    21  H   -0.000004  -0.000004   0.000000  -0.000000  -0.000000   0.000035
    22  H   -0.000034  -0.001562   0.000387   0.000018   0.000001  -0.000000
    23  H   -0.000008  -0.000497   0.001268   0.000142   0.000002  -0.000000
    24  H   -0.000000  -0.000002   0.000054   0.000046   0.000000  -0.000000
    25  H    0.000000  -0.000000   0.000022  -0.000047  -0.000004   0.000000
    26  H   -0.000000  -0.000001   0.000023   0.000087  -0.000060   0.000000
    27  H    0.000001   0.000000  -0.000002  -0.000030   0.000016  -0.000001
    28  H    0.000038   0.000001  -0.000000  -0.000006  -0.000032  -0.000056
    29  H   -0.000172  -0.000014   0.000001   0.000002   0.000051   0.000107
    30  H   -0.000010  -0.000026   0.000000   0.000000   0.000000   0.000014
               7          8          9         10         11         12
     1  C   -0.002706  -0.000566   0.002175  -0.000399   0.000067   0.000739
     2  C    0.002173   0.000275  -0.027222   0.000874   0.000446   0.015381
     3  C    0.000338   0.000027  -0.007486  -0.000180   0.000661  -0.002828
     4  C   -0.000048  -0.000001   0.009541  -0.000926   0.003589  -0.006792
     5  C   -0.000227  -0.000016   0.001007  -0.000072   0.000138  -0.000802
     6  C   -0.005526   0.000459  -0.000791   0.000060  -0.000012   0.000074
     7  C   -0.052069   0.002795  -0.000772  -0.000096   0.000008  -0.000009
     8  C    0.002795   0.017188  -0.000739  -0.000049   0.000002  -0.000001
     9  C   -0.000772  -0.000739   1.117816  -0.008775  -0.008543  -0.028768
    10  C   -0.000096  -0.000049  -0.008775  -0.073561   0.005831   0.009944
    11  C    0.000008   0.000002  -0.008543   0.005831   0.092141  -0.003350
    12  C   -0.000009  -0.000001  -0.028768   0.009944  -0.003350  -0.004714
    13  C   -0.000000  -0.000000  -0.001549   0.000641  -0.009852   0.000069
    14  C    0.000000   0.000000   0.000090  -0.000019   0.000396   0.001775
    15  C    0.000000  -0.000000  -0.000267   0.000035  -0.000405  -0.000517
    16  C   -0.000000  -0.000000  -0.000001   0.000000  -0.000001  -0.000018
    17  C   -0.000000   0.000000   0.000001  -0.000000   0.000000   0.000002
    18  C   -0.000026   0.000000   0.000005  -0.000001   0.000000  -0.000014
    19  C    0.000246   0.000002   0.000000   0.000000  -0.000000   0.000000
    20  C   -0.000813  -0.000015  -0.000038  -0.000000   0.000000  -0.000001
    21  H    0.000944  -0.000951   0.000042  -0.000000   0.000000   0.000000
    22  H   -0.000001  -0.000002  -0.003172   0.008957  -0.003664  -0.000979
    23  H    0.000000   0.000000   0.001972  -0.001062  -0.001569  -0.005049
    24  H   -0.000000  -0.000000   0.000005  -0.000006   0.000110   0.000241
    25  H    0.000000   0.000000  -0.000000   0.000000  -0.000002  -0.000033
    26  H    0.000000   0.000000  -0.000000   0.000000  -0.000000  -0.000002
    27  H   -0.000000  -0.000000   0.000000  -0.000000   0.000000   0.000000
    28  H   -0.000002  -0.000000   0.000000  -0.000000   0.000000  -0.000000
    29  H    0.000219   0.000013   0.000000   0.000000  -0.000000   0.000000
    30  H    0.000986  -0.000873   0.000076  -0.000000   0.000000   0.000000
              13         14         15         16         17         18
     1  C    0.000119  -0.000053   0.000055   0.000037   0.000039  -0.000208
     2  C    0.001064  -0.000094  -0.000463   0.000018   0.000034   0.000431
     3  C   -0.002391  -0.001301   0.007902  -0.000020  -0.000244  -0.000062
     4  C   -0.010638   0.005695  -0.010612   0.000310  -0.001050   0.000351
     5  C   -0.000398   0.000503  -0.001375   0.000085   0.000810  -0.002016
     6  C    0.000003  -0.000002   0.000010   0.000004  -0.000046  -0.000734
     7  C   -0.000000   0.000000   0.000000  -0.000000  -0.000000  -0.000026
     8  C   -0.000000   0.000000  -0.000000  -0.000000   0.000000   0.000000
     9  C   -0.001549   0.000090  -0.000267  -0.000001   0.000001   0.000005
    10  C    0.000641  -0.000019   0.000035   0.000000  -0.000000  -0.000001
    11  C   -0.009852   0.000396  -0.000405  -0.000001   0.000000   0.000000
    12  C    0.000069   0.001775  -0.000517  -0.000018   0.000002  -0.000014
    13  C    0.036339  -0.000979   0.003829   0.000034  -0.000006   0.000005
    14  C   -0.000979  -0.011108  -0.006468  -0.000262   0.000036  -0.000004
    15  C    0.003829  -0.006468   0.011451  -0.000088   0.000137  -0.000061
    16  C    0.000034  -0.000262  -0.000088   0.007974   0.000903  -0.000346
    17  C   -0.000006   0.000036   0.000137   0.000903   0.000207  -0.002037
    18  C    0.000005  -0.000004  -0.000061  -0.000346  -0.002037   0.009086
    19  C    0.000000  -0.000000  -0.000009  -0.000026   0.000003   0.002914
    20  C   -0.000000   0.000000   0.000002  -0.000002   0.000055   0.000768
    21  H    0.000000  -0.000000   0.000000  -0.000000   0.000000   0.000000
    22  H   -0.000018   0.000000  -0.000000  -0.000000   0.000000   0.000000
    23  H   -0.001476   0.000026  -0.000014  -0.000000   0.000000  -0.000000
    24  H   -0.000494   0.000089  -0.000037  -0.000000   0.000000  -0.000000
    25  H    0.000026  -0.000040   0.000114   0.000031  -0.000001   0.000000
    26  H    0.000005  -0.000067  -0.000373   0.000251  -0.000091   0.000049
    27  H   -0.000000   0.000001   0.000022  -0.000038   0.000121  -0.000116
    28  H   -0.000000   0.000000   0.000001  -0.000001   0.000027   0.000113
    29  H    0.000000  -0.000000  -0.000000   0.000000  -0.000001  -0.000051
    30  H    0.000000  -0.000000   0.000000   0.000000   0.000000  -0.000000
              19         20         21         22         23         24
     1  C   -0.001034   0.001773  -0.000004  -0.000034  -0.000008  -0.000000
     2  C   -0.000152   0.000561  -0.000004  -0.001562  -0.000497  -0.000002
     3  C    0.000073  -0.000170   0.000000   0.000387   0.001268   0.000054
     4  C    0.000145  -0.000080  -0.000000   0.000018   0.000142   0.000046
     5  C    0.000901  -0.001023  -0.000000   0.000001   0.000002   0.000000
     6  C    0.001087  -0.000181   0.000035  -0.000000  -0.000000  -0.000000
     7  C    0.000246  -0.000813   0.000944  -0.000001   0.000000  -0.000000
     8  C    0.000002  -0.000015  -0.000951  -0.000002   0.000000  -0.000000
     9  C    0.000000  -0.000038   0.000042  -0.003172   0.001972   0.000005
    10  C    0.000000  -0.000000  -0.000000   0.008957  -0.001062  -0.000006
    11  C   -0.000000   0.000000   0.000000  -0.003664  -0.001569   0.000110
    12  C    0.000000  -0.000001   0.000000  -0.000979  -0.005049   0.000241
    13  C    0.000000  -0.000000   0.000000  -0.000018  -0.001476  -0.000494
    14  C   -0.000000   0.000000  -0.000000   0.000000   0.000026   0.000089
    15  C   -0.000009   0.000002   0.000000  -0.000000  -0.000014  -0.000037
    16  C   -0.000026  -0.000002  -0.000000  -0.000000  -0.000000  -0.000000
    17  C    0.000003   0.000055   0.000000   0.000000   0.000000   0.000000
    18  C    0.002914   0.000768   0.000000   0.000000  -0.000000  -0.000000
    19  C   -0.005208  -0.004357  -0.000000  -0.000000  -0.000000  -0.000000
    20  C   -0.004357   0.001289  -0.000001   0.000000   0.000000   0.000000
    21  H   -0.000000  -0.000001  -0.003266  -0.000000  -0.000000  -0.000000
    22  H   -0.000000   0.000000  -0.000000   0.011671   0.000862   0.000000
    23  H   -0.000000   0.000000  -0.000000   0.000862   0.008244   0.000031
    24  H   -0.000000   0.000000  -0.000000   0.000000   0.000031  -0.000657
    25  H    0.000000  -0.000000   0.000000   0.000000  -0.000000  -0.000002
    26  H    0.000000  -0.000000   0.000000  -0.000000  -0.000000  -0.000000
    27  H   -0.000001   0.000003  -0.000000   0.000000   0.000000   0.000000
    28  H   -0.000115   0.000078  -0.000000  -0.000000   0.000000  -0.000000
    29  H    0.000114  -0.000187   0.000000   0.000000  -0.000000   0.000000
    30  H   -0.000000  -0.000004   0.000571  -0.000000  -0.000000  -0.000000
              25         26         27         28         29         30
     1  C    0.000000  -0.000000   0.000001   0.000038  -0.000172  -0.000010
     2  C   -0.000000  -0.000001   0.000000   0.000001  -0.000014  -0.000026
     3  C    0.000022   0.000023  -0.000002  -0.000000   0.000001   0.000000
     4  C   -0.000047   0.000087  -0.000030  -0.000006   0.000002   0.000000
     5  C   -0.000004  -0.000060   0.000016  -0.000032   0.000051   0.000000
     6  C    0.000000   0.000000  -0.000001  -0.000056   0.000107   0.000014
     7  C    0.000000   0.000000  -0.000000  -0.000002   0.000219   0.000986
     8  C    0.000000   0.000000  -0.000000  -0.000000   0.000013  -0.000873
     9  C   -0.000000  -0.000000   0.000000   0.000000   0.000000   0.000076
    10  C    0.000000   0.000000  -0.000000  -0.000000   0.000000  -0.000000
    11  C   -0.000002  -0.000000   0.000000   0.000000  -0.000000   0.000000
    12  C   -0.000033  -0.000002   0.000000  -0.000000   0.000000   0.000000
    13  C    0.000026   0.000005  -0.000000  -0.000000   0.000000   0.000000
    14  C   -0.000040  -0.000067   0.000001   0.000000  -0.000000  -0.000000
    15  C    0.000114  -0.000373   0.000022   0.000001  -0.000000   0.000000
    16  C    0.000031   0.000251  -0.000038  -0.000001   0.000000   0.000000
    17  C   -0.000001  -0.000091   0.000121   0.000027  -0.000001   0.000000
    18  C    0.000000   0.000049  -0.000116   0.000113  -0.000051  -0.000000
    19  C    0.000000   0.000000  -0.000001  -0.000115   0.000114  -0.000000
    20  C   -0.000000  -0.000000   0.000003   0.000078  -0.000187  -0.000004
    21  H    0.000000   0.000000  -0.000000  -0.000000   0.000000   0.000571
    22  H    0.000000  -0.000000   0.000000  -0.000000   0.000000  -0.000000
    23  H   -0.000000  -0.000000   0.000000   0.000000  -0.000000  -0.000000
    24  H   -0.000002  -0.000000   0.000000  -0.000000   0.000000  -0.000000
    25  H    0.000442   0.000002  -0.000000   0.000000  -0.000000   0.000000
    26  H    0.000002   0.000070  -0.000021  -0.000000   0.000000   0.000000
    27  H   -0.000000  -0.000021   0.000022   0.000004  -0.000000  -0.000000
    28  H    0.000000  -0.000000   0.000004   0.000154   0.000015  -0.000000
    29  H   -0.000000   0.000000  -0.000000   0.000015   0.000195   0.000000
    30  H    0.000000   0.000000  -0.000000  -0.000000   0.000000  -0.003511
 Mulliken charges and spin densities:
               1          2
     1  C    0.121397   0.009633
     2  C    0.062530  -0.071592
     3  C   -0.104409   0.048239
     4  C   -0.116231  -0.012342
     5  C   -0.140780  -0.007750
     6  C   -0.071131   0.011098
     7  C    0.207439  -0.054587
     8  C   -0.419399   0.017547
     9  C    0.034826   1.044608
    10  C   -0.199388  -0.058807
    11  C   -0.197731   0.075989
    12  C    0.197828  -0.025652
    13  C   -0.184007   0.014333
    14  C   -0.223546  -0.011788
    15  C    0.241529   0.002869
    16  C   -0.194856   0.008845
    17  C   -0.200465  -0.001102
    18  C    0.248995   0.008046
    19  C   -0.242852  -0.005416
    20  C   -0.126781  -0.002341
    21  H    0.279614  -0.002635
    22  H    0.217029   0.012463
    23  H    0.218164   0.002871
    24  H    0.210654  -0.000623
    25  H    0.208296   0.000508
    26  H    0.224177  -0.000129
    27  H    0.215285  -0.000019
    28  H    0.222623   0.000220
    29  H    0.231044   0.000293
    30  H    0.280146  -0.002778
 Sum of Mulliken charges =   1.00000   1.00000
 Mulliken charges and spin densities with hydrogens summed into heavy atoms:
               1          2
     1  C    0.121397   0.009633
     2  C    0.062530  -0.071592
     3  C   -0.104409   0.048239
     4  C   -0.116231  -0.012342
     5  C   -0.140780  -0.007750
     6  C   -0.071131   0.011098
     7  C    0.207439  -0.054587
     8  C    0.140361   0.012134
     9  C    0.034826   1.044608
    10  C    0.017641  -0.046344
    11  C    0.020433   0.078860
    12  C    0.197828  -0.025652
    13  C    0.026647   0.013710
    14  C   -0.015250  -0.011280
    15  C    0.241529   0.002869
    16  C    0.029321   0.008716
    17  C    0.014819  -0.001121
    18  C    0.248995   0.008046
    19  C   -0.020229  -0.005196
    20  C    0.104264  -0.002047
 Electronic spatial extent (au):  <R**2>=           4469.5167
 Charge=              1.0000 electrons
 Dipole moment (field-independent basis, Debye):
    X=             -3.9527    Y=              1.0504    Z=              0.7237  Tot=              4.1535
 Quadrupole moment (field-independent basis, Debye-Ang):
   XX=            -53.0484   YY=            -65.1867   ZZ=           -113.5074
   XY=             -8.0841   XZ=             -0.1377   YZ=              0.5163
 Traceless Quadrupole moment (field-independent basis, Debye-Ang):
   XX=             24.1991   YY=             12.0608   ZZ=            -36.2599
   XY=             -8.0841   XZ=             -0.1377   YZ=              0.5163
 Octapole moment (field-independent basis, Debye-Ang**2):
  XXX=            -56.3093  YYY=              1.5267  ZZZ=              2.6590  XYY=            -13.7106
  XXY=             45.0742  XXZ=             11.0701  XZZ=            -11.3450  YZZ=              5.6794
  YYZ=              7.0994  XYZ=             -3.3403
 Hexadecapole moment (field-independent basis, Debye-Ang**3):
 XXXX=          -2472.0042 YYYY=          -2127.7923 ZZZZ=           -129.7524 XXXY=           -197.3430
 XXXZ=             10.2182 YYYX=            -24.8200 YYYZ=             -3.2404 ZZZX=             -9.3770
 ZZZY=              6.3385 XXYY=           -662.9452 XXZZ=           -577.9857 YYZZ=           -508.6073
 XXYZ=              9.8494 YYXZ=             -2.2251 ZZXY=            -28.1783
 N-N= 1.343093804680D+03 E-N=-4.444686315587D+03  KE= 7.608300050995D+02
                          Isotropic Fermi Contact Couplings
        Atom                 a.u.       MegaHertz       Gauss      10(-4) cm-1
     1  C(13)              0.00887       9.97499       3.55933       3.32730
     2  C(13)              0.00340       3.82018       1.36314       1.27428
     3  C(13)              0.03424      38.49018      13.73425      12.83894
     4  C(13)              0.00050       0.56377       0.20117       0.18805
     5  C(13)             -0.00124      -1.39802      -0.49885      -0.46633
     6  C(13)              0.00225       2.53402       0.90420       0.84526
     7  C(13)             -0.01172     -13.17299      -4.70045      -4.39404
     8  C(13)              0.00519       5.83758       2.08299       1.94721
     9  C(13)              0.52590     591.21074     210.95869     197.20667
    10  C(13)              0.01233      13.86408       4.94705       4.62456
    11  C(13)              0.03744      42.09080      15.01904      14.03998
    12  C(13)             -0.00782      -8.78659      -3.13527      -2.93089
    13  C(13)              0.00525       5.89882       2.10484       1.96763
    14  C(13)             -0.00238      -2.67143      -0.95323      -0.89109
    15  C(13)              0.00250       2.81215       1.00345       0.93803
    16  C(13)              0.00204       2.29842       0.82013       0.76667
    17  C(13)             -0.00045      -0.50245      -0.17929      -0.16760
    18  C(13)              0.00151       1.69273       0.60401       0.56463
    19  C(13)             -0.00094      -1.05876      -0.37779      -0.35316
    20  C(13)              0.00024       0.26752       0.09546       0.08923
    21  H(1)              -0.00132      -5.89328      -2.10287      -1.96579
    22  H(1)               0.00936      41.84201      14.93027      13.95699
    23  H(1)               0.00092       4.13257       1.47460       1.37848
    24  H(1)              -0.00018      -0.81577      -0.29109      -0.27211
    25  H(1)               0.00018       0.81416       0.29051       0.27157
    26  H(1)              -0.00001      -0.06328      -0.02258      -0.02111
    27  H(1)               0.00000       0.00212       0.00076       0.00071
    28  H(1)               0.00007       0.31124       0.11106       0.10382
    29  H(1)               0.00011       0.50954       0.18182       0.16997
[...]
 039479,0.00248031,-0.00434743,0.00001902,0.00081328,0.00090927,0.00001
 262,0.00042419,-0.00019016,0.00000666,0.00008154,-0.00039972,0.0000004
 2,-0.00004781,0.00001210,-0.00000067,-0.00002818,-0.00001224,-0.000000
 40,0.00000074,0.00000072,0.00000279,0.00000276,-0.00001858,-0.00000014
 ,0.00078012,-0.00040151,0.00001031,0.03833712,0.06399305,-0.00000650,-
 0.00000079,0.00031139,-0.00001138,0.00000555,0.00077828,-0.00004571,-0
 .00004177,0.00367493,0.00001692,0.00000374,-0.00037575,0.00000609,0.00
 000019,-0.00066807,0.00000485,-0.00000016,-0.00035747,0.00000043,0.000
 00086,0.00000914,-0.00000010,-0.00000036,-0.00000021,-0.00000046,-0.00
 000065,0.00002617,0.00000163,-0.00000133,-0.00011908,0.00004750,0.0000
 0953,-0.00254051,-0.00017909,-0.00000410,0.00332884,-0.00453499,-0.000
 54066,-0.03856115,-0.00021876,-0.00005175,0.00460134,-0.00012973,0.000
 02325,0.00884458,-0.00000629,-0.00000752,0.00028905,0.00000469,0.00000
 222,-0.00056277,-0.00000045,0.00000216,0.00019666,-0.00000120,-0.00000
 164,-0.00000793,-0.00000011,0.00000172,-0.00001839,0.00001153,-0.00000
 107,0.00000272,-0.00000186,-0.00000041,0.00012372,-0.00000745,-0.00001
 246,0.00037775,0.00497044,0.00060643,0.02618012,-0.00071969,0.00006409
 ,-0.00001130,0.00029794,-0.00041974,0.00001436,-0.00050057,0.00064048,
 -0.00000234,-0.00653413,0.00087910,-0.00015200,0.00049051,-0.00146938,
 -0.00001062,0.00008277,-0.00002219,0.00000495,-0.00004389,-0.00007528,
 0.00000034,0.00000607,0.00000444,-0.00000083,-0.00025553,0.00018262,-0
 .00000567,0.00003120,0.00036915,0.00000922,0.00085871,0.00041165,0.000
 00956,-0.00241016,0.00289956,-0.00016097,0.01129700,0.01896275,0.00012
 972,-0.11485158,-0.11665694,-0.00126910,-0.00813647,-0.02851339,-0.000
 19648,0.00181604,-0.00073032,0.00006004,-0.00001752,0.00033431,0.00000
 185,0.00003316,-0.00016458,0.00000239,0.00008333,0.00015258,0.00000043
 ,-0.00002902,-0.00009909,-0.00000064,-0.00000012,0.00000492,-0.0000007
 9,0.00006546,0.00007883,0.00000103,-0.00000425,0.00000663,-0.00000213,
 0.00082156,0.00005929,0.00009470,0.11809144,0.00012433,-0.00010844,0.0
 0000159,-0.00015313,0.00011341,-0.00000113,0.00066378,0.00015677,0.000
 01020,0.00024866,0.00116281,-0.00000005,0.00034521,0.00036427,0.000004
 09,-0.00001080,-0.00003635,0.00000013,0.00003654,0.00004912,0.00000069
 ,-0.00000622,-0.00001747,-0.00000020,0.00026711,-0.00005037,0.00000362
 ,0.00006258,-0.00042015,0.00000109,-0.00092294,-0.00027693,-0.00001408
 ,0.00348363,-0.00178408,0.00003682,-0.01179167,-0.01816975,-0.00020018
 ,-0.11394262,-0.29654135,-0.00199108,0.00060427,0.00351980,0.00000965,
 -0.00023128,0.00083398,0.00000078,-0.00020072,-0.00020797,-0.00000304,
 -0.00003722,0.00016699,-0.00000014,-0.00004982,-0.00008743,-0.00000093
 ,-0.00004578,0.00007802,-0.00000057,0.00000147,0.00000331,-0.00000485,
 -0.00007140,-0.00007066,-0.00000114,0.00001907,-0.00002020,0.00000007,
 -0.00001620,0.00080969,0.00000817,0.12233150,0.31080042,-0.00001119,0.
 00000068,0.00006214,0.00001470,-0.00000499,-0.00072722,-0.00000239,0.0
 0000989,-0.00028241,-0.00015266,0.00000899,0.00398701,-0.00000836,-0.0
 0002226,0.00109451,0.00000497,-0.00000002,-0.00025966,0.00000049,-0.00
 000094,-0.00007429,-0.00000084,-0.00000004,0.00006334,-0.00000556,0.00
 000239,0.00015038,0.00000880,0.00000559,-0.00056882,0.00000786,0.00000
 535,0.00023787,-0.00016025,0.00002834,0.00891707,0.00009007,0.00024696
 ,0.00406170,-0.00126582,-0.00203061,-0.03796314,-0.00015867,-0.0004136
 3,0.00284541,0.00006061,-0.00000649,-0.00237533,0.00000119,0.00000478,
 -0.00011453,0.00000255,-0.00000204,-0.00014642,0.00000017,0.00000203,0
 .00006768,-0.00000056,-0.00000136,0.00000577,0.00004436,-0.00001549,-0
 .00000007,0.00000083,0.00000105,0.00000207,-0.00000212,-0.00000012,0.0
 0014306,0.00009461,0.00000925,-0.00568534,0.00149606,0.00214686,0.0260
 9918,0.00013713,0.00021905,0.00001672,-0.00032075,0.00031795,-0.000005
 16,0.00071341,0.00108685,0.00001464,-0.00382804,0.00354324,-0.00010216
 ,-0.00082736,-0.00009715,-0.00000917,-0.00009669,0.00001436,-0.0000048
 5,-0.00002375,0.00011005,-0.00000204,-0.00000330,-0.00004321,0.0000007
 0,0.00015986,0.00008146,-0.00000063,-0.00008926,-0.00004293,0.00000112
 ,-0.00004584,0.00004842,-0.00000223,0.00040351,0.00002657,0.00000676,-
 0.00012160,-0.00047503,-0.00000042,0.00161769,-0.00018262,0.00005378,0
 .01104396,0.02255532,0.00009504,-0.07535178,-0.06266793,-0.00054308,-0
 .00333565,-0.02987740,-0.00018698,-0.00583443,-0.00082690,-0.00022826,
 0.00069607,-0.00108600,0.00001962,-0.00046195,-0.00029407,0.00000461,-
 0.00000024,0.00000291,-0.00000698,-0.00000016,-0.00000390,-0.00000010,
 -0.00000973,0.00001764,0.00000007,-0.00001518,0.00000818,-0.00000151,-
 0.00041824,-0.00069763,-0.00001169,0.07525130,0.00009367,-0.00090757,0
 .00000145,-0.00009136,-0.00013765,-0.00000158,-0.00086241,-0.00025993,
 -0.00001261,0.00353416,-0.00164607,0.00004473,0.00041056,0.00161165,0.
 00000835,0.00012188,0.00039187,0.00000198,-0.00002674,-0.00029382,-0.0
 0000094,0.00001201,0.00010131,0.00000038,0.00010279,-0.00023752,0.0000
 0090,-0.00012546,-0.00008520,-0.00000172,0.00001102,0.00011911,0.00000
 017,-0.00000065,-0.00003488,0.00000002,0.00010049,0.00003343,0.0000016
 8,-0.00038270,0.00083698,-0.00000179,-0.00643707,-0.01416453,-0.000120
 19,-0.06630466,-0.33635314,-0.00134109,0.00087791,-0.00213293,0.000001
 22,-0.00045634,0.00033330,-0.00001877,0.00023213,0.00001193,0.00000436
 ,-0.00017599,-0.00013841,-0.00000171,0.00000291,0.00000216,0.00001037,
 -0.00000364,0.00000143,-0.00000006,0.00001494,-0.00001431,0.00000021,0
 .00002198,-0.00001152,0.00000019,0.00077428,-0.00026987,0.00001049,0.0
 6851386,0.35240713,0.00001654,0.00000330,-0.00099189,-0.00000563,0.000
 00437,0.00006183,0.00001214,0.00001571,-0.00019763,-0.00010230,0.00004
 481,0.00350771,-0.00000846,0.00000094,-0.00020707,-0.00000469,0.000000
 42,0.00023780,-0.00000221,0.00000104,0.00012607,0.00000077,-0.00000042
 ,-0.00005511,-0.00000064,0.00000059,0.00021121,0.00000104,-0.00000050,
 -0.00016995,-0.00000228,0.00000068,0.00011202,0.00000669,0.00000042,-0
 .00005893,0.00000033,-0.00000666,-0.00013520,0.00005353,0.00000108,-0.
 00209355,0.00005766,0.00030185,0.00650288,-0.00054750,-0.00128804,-0.0
 4357367,-0.00014758,-0.00044654,0.00686788,-0.00022778,-0.00002416,0.0
 0977354,0.00002133,-0.00001484,-0.00074931,0.00000475,-0.00000340,-0.0
 0080446,-0.00002712,0.00001312,0.00000465,-0.00000010,-0.00000006,0.00
 000640,0.00000007,0.00000025,-0.00001300,-0.00000149,-0.00000001,0.000
 08899,-0.00000980,-0.00001092,0.00032313,0.00079817,0.00141584,0.02647
 134,0.00048378,-0.00033720,-0.00000798,0.00014968,-0.00028750,0.000001
 45,0.00022696,-0.00006032,0.00001176,-0.00025137,-0.00066884,0.0000023
 6,-0.00055789,-0.00258155,-0.00007086,0.00015063,0.00005412,0.00000313
 ,0.00001569,0.00001022,-0.00000018,-0.00000030,0.00000199,0.00000017,-
 0.00008686,0.00013143,0.00000261,0.00016494,0.00006097,0.00000274,0.00
 002869,-0.00015198,0.00000034,-0.00015583,-0.00009286,-0.00000510,-0.0
 0049629,-0.00008849,0.00000135,0.00012109,0.00128856,-0.00000147,-0.00
 401007,-0.00310375,-0.00018877,-0.01766970,0.02240911,-0.00028177,-0.1
 9715102,0.14644591,-0.00214371,0.01119315,-0.00888273,0.00011179,0.001
 37044,0.00012502,0.00005990,-0.00013037,0.00029868,-0.00000086,-0.0000
 0024,-0.00000071,0.00000137,0.00000980,0.00000488,-0.00000084,-0.00000
 299,-0.00000331,-0.00000010,-0.00005996,0.00012872,-0.00000075,-0.0000
 2963,-0.00001202,-0.00000233,0.00076707,0.00005563,0.00009312,0.206197
 08,0.00114925,0.00048463,0.00001609,0.00029897,-0.00068667,0.00000341,
 0.00020625,-0.00009509,0.00000365,-0.00062125,0.00006176,-0.00000838,-
 0.00348092,-0.00508088,-0.00006253,0.00003065,-0.00018891,0.00000027,-
 0.00007774,0.00031312,-0.00000076,-0.00001641,-0.00010276,-0.00000036,
 -0.00022560,0.00027998,-0.00000258,0.00026552,0.00015925,0.00000409,0.
 00006777,-0.00020909,0.00000072,-0.00013452,-0.00000442,-0.00000220,-0
 .00016688,0.00002670,-0.00000162,0.00001963,0.00058745,0.00000061,-0.0
 0253940,-0.00028435,-0.00004850,-0.00848996,0.01008461,-0.00011532,0.1
 4829797,-0.21439978,0.00192981,0.02121345,-0.01724673,0.00028306,0.000
 83339,0.00127036,0.00001729,-0.00022138,0.00018845,-0.00000292,0.00000
 659,0.00000525,-0.00001486,0.00002215,0.00000297,0.00000024,-0.0000047
 0,0.00000016,-0.00000007,-0.00003567,0.00005777,-0.00000045,0.00000444
 ,-0.00000007,-0.00000010,-0.00009913,0.00085583,0.00000691,-0.15541109
 ,0.22425685,-0.00000610,-0.00000559,0.00100277,0.00000222,-0.00000510,
 0.00002378,0.00001208,-0.00000021,-0.00058674,0.00000244,-0.00000907,-
 0.00047158,-0.00007200,-0.00004940,0.00407778,0.00000310,0.00000062,-0
 .00006014,-0.00000029,0.00000051,0.00002893,0.00000014,-0.00000009,-0.
 00001154,0.00000214,0.00000262,-0.00025437,0.00000302,0.00000112,-0.00
 001818,0.00000063,-0.00000248,-0.00000859,-0.00000514,-0.00000158,0.00
 018661,0.00000123,-0.00000051,-0.00059640,-0.00000313,0.00001911,0.000
 33542,-0.00018799,-0.00005675,0.00868124,-0.00032162,0.00033449,0.0036
 6820,-0.00214130,0.00190293,-0.03693937,0.00015060,-0.00015513,0.00273
 035,0.00006080,0.00000699,-0.00273257,-0.00000154,0.00000464,-0.000044
 55,0.00001994,-0.00000127,0.00000438,-0.00000082,-0.00000002,0.0000678
 7,-0.00000010,-0.00000005,0.00000359,-0.00000097,0.00000194,0.00000327
 ,-0.00000231,-0.00000034,0.00012930,0.00009291,0.00000913,-0.00562419,
 0.00242319,-0.00200651,0.02599445,-0.00025881,-0.00121228,0.00000029,-
 0.00015991,0.00021319,0.00000909,-0.00048494,-0.00020061,-0.00000941,-
 0.00037268,0.00138703,-0.00000956,-0.00372729,-0.00333138,-0.00011985,
 0.00071415,-0.00189381,-0.00012730,0.00063003,-0.00037289,-0.00000094,
 -0.00010341,-0.00006252,0.00000788,0.00011568,-0.00008732,0.00000145,-
 0.00013809,-0.00004425,-0.00000250,-0.00006044,0.00011242,-0.00000017,
 0.00008125,0.00004317,0.00000440,-0.00002594,0.00005694,-0.00000016,0.
 00005587,-0.00010038,-0.00000017,0.00000788,0.00016891,0.00000257,0.00
 002369,-0.00017324,0.00000134,0.00142654,0.00093692,0.00005651,-0.0168
 4891,0.01820844,-0.00027703,-0.24753419,0.14327434,-0.00284371,0.00842
 905,-0.00534371,0.00005392,-0.00002291,-0.00000023,-0.00000353,-0.0000
 0438,-0.00000058,-0.00000010,-0.00000728,0.00001772,-0.00000110,-0.000
 00010,-0.00000437,-0.00000003,-0.00002806,-0.00000298,-0.00000054,-0.0
 0000713,-0.00002607,-0.00000237,-0.00027837,-0.00087723,-0.00000925,0.
 25784817,-0.00064804,-0.00056228,-0.00000964,-0.00004468,0.00013543,0.
 00000051,-0.00019638,-0.00015939,-0.00000326,-0.00055661,0.00076100,-0
 .00000765,-0.00307434,-0.00093247,-0.00005143,-0.00213391,-0.00340208,
 -0.00004751,0.00114105,-0.00105267,0.00001438,-0.00010095,-0.00007074,
 -0.00000073,0.00005733,-0.00006261,0.00000074,-0.00007099,-0.00004081,
 -0.00000112,-0.00005166,0.00005583,-0.00000063,-0.00000575,0.00002898,
 0.00000024,-0.00000983,0.00008123,-0.00000003,0.00008691,-0.00008994,0
 .00000107,-0.00001968,0.00026281,0.00000025,0.00032107,-0.00018813,0.0
 0000454,0.00017216,0.00143510,0.00000743,-0.01097977,0.01262631,-0.000
 14835,0.14072020,-0.16572250,0.00188429,0.02547265,-0.01507312,0.00034
 568,-0.00003202,0.00000631,-0.00003179,-0.00000278,-0.00000064,-0.0000
 0004,-0.00000172,0.00000947,-0.00000010,0.00000042,-0.00000300,0.,-0.0
 0001453,0.00000055,-0.00000022,-0.00000257,-0.00001058,-0.00000025,0.0
 0066770,-0.00031970,0.00000895,-0.15067790,0.17148104,0.00000108,-0.00
 001782,-0.00038712,0.00000875,0.00000429,-0.00076579,-0.00000939,-0.00
 000331,0.00014275,-0.00001210,0.00002063,0.00040809,-0.00011947,-0.000
 05521,0.00420867,-0.00012761,-0.00004406,0.00929040,0.00000101,-0.0000
 0760,0.00066094,0.00000784,-0.00000014,-0.00065111,0.00000166,-0.00000
 137,0.00000805,-0.00000254,-0.00000075,0.00002956,-0.00000039,0.000001
 77,-0.00003814,0.00000435,0.00000094,-0.00021748,-0.00000024,0.0000009
 4,-0.00001001,0.00000007,-0.00000165,0.00005874,0.00000235,0.00000299,
 -0.00015431,0.00000196,-0.00000265,-0.00008394,0.00005556,0.00001858,-
 0.00237300,-0.00031502,0.00027637,0.00380304,-0.00284692,0.00192156,-0
 .03941004,0.00009382,-0.00010291,0.00425038,0.00046868,0.00000782,0.00
 003314,-0.00000010,-0.00000001,0.00000209,-0.00000112,0.00000018,0.000
 06993,-0.00000002,-0.00000007,0.00000144,-0.00000055,-0.00000005,0.000
 00860,-0.00000234,-0.00000059,0.00015314,-0.00000726,-0.00001354,0.000
 27977,0.00317293,-0.00200491,0.02645037,-0.00154604,0.00400718,-0.0000
 5213,0.00007442,-0.00067221,-0.00002609,-0.00044106,0.00029597,-0.0000
 0423,0.00041997,-0.00000539,0.00000939,0.00048888,-0.00070792,0.000017
 02,-0.01640245,-0.00800617,-0.00026775,-0.00021891,-0.00154224,0.00002
 107,0.00024068,0.00063059,0.00000015,-0.00002523,0.00001156,-0.0000016
 1,-0.00005189,0.00001374,0.00000109,0.00000551,0.00008566,0.00000032,0
 .00016079,-0.00005734,0.00000593,0.00003295,-0.00012633,0.00000073,-0.
 00013422,0.00001816,-0.00000165,0.00019540,-0.00031432,0.00000153,-0.0
 0039341,0.00006642,0.00000355,0.00041345,0.00038027,0.00001589,-0.0000
 5218,0.00015879,-0.00014032,0.00281482,0.00175801,-0.00004918,-0.31199
 865,-0.10711933,-0.00413443,-0.00000272,0.00008371,0.00000981,-0.00001
 350,-0.00000404,-0.00000034,-0.00000257,-0.00000179,-0.00000042,-0.000
 00247,-0.00001275,-0.00000086,0.00000252,0.00000284,0.00000004,0.00000
 231,0.00000974,-0.00000315,0.00000149,-0.00002035,-0.00000185,0.000739
 87,0.00001635,0.00009504,0.32569575,0.00308381,-0.00350801,0.00003723,
 0.00030423,0.00080319,0.00000311,0.00036858,-0.00024632,0.00000521,-0.
 00015130,0.00011811,-0.00000177,0.00044756,-0.00008358,0.00000736,0.02
 109386,0.00835369,0.00031610,0.00113809,0.00231483,0.00002195,-0.00045
 555,-0.00052955,-0.00000769,-0.00003795,0.00010499,-0.00000052,0.00005
 643,0.00000691,0.00000099,0.00001460,-0.00005544,0.00000015,-0.0000629
 6,0.00010669,-0.00000045,-0.00000010,0.00003311,0.00000008,0.00005659,
 0.00002884,0.00000088,0.00002781,0.00007534,0.00000042,0.00008652,-0.0
 0060140,0.00000130,-0.00140497,0.00050043,-0.00001897,0.00077247,-0.00
 599519,-0.00000898,-0.02933582,-0.00718219,-0.00044448,-0.10689161,-0.
 10150427,-0.00163872,0.00002943,-0.00005588,0.00002957,0.00002013,0.00
 000345,0.00000028,0.00000040,0.00000331,-0.00000002,0.00000150,0.00001
 760,-0.00000003,0.00000035,-0.00000129,0.,-0.00015269,-0.00001044,-0.0
 0000252,0.00000016,-0.00002190,-0.00000019,-0.00000731,0.00080034,0.00
 000844,0.11096757,0.10658043,-0.00005327,0.00005060,0.00239302,-0.0000
 2483,-0.00001109,0.00180753,-0.00000414,0.00000414,-0.00012370,0.00000
 919,0.00000036,-0.00022548,0.00001850,-0.00000946,-0.00074387,-0.00023
 004,-0.00010734,0.00128029,0.00002464,-0.00001707,-0.00180696,-0.00000
 126,0.00000813,0.00028749,-0.00000167,0.00000018,0.00008569,0.00000114
 ,0.00000038,-0.00012544,0.00000022,0.00000119,-0.00000855,0.00000592,-
 0.00000037,-0.00025175,0.00000090,-0.00000176,-0.00002872,-0.00000160,
 0.00000033,-0.00001909,0.00000197,-0.00000455,0.00006237,0.00000357,0.
 00000100,-0.00063153,0.00001357,0.00000702,-0.00064409,-0.00013961,-0.
 00001791,0.00960239,-0.00008943,0.00000815,0.00634826,-0.00413419,-0.0
 0164212,-0.03750337,-0.00003586,-0.00000337,-0.00001427,-0.00000031,-0
 .00000007,0.00000970,-0.00000042,-0.00000006,0.00002613,-0.00000084,-0
 .00000023,0.00005573,0.00000003,0.00000004,0.00000028,-0.00000336,-0.0
 0000015,0.00021978,-0.00000182,-0.00000049,0.00012670,0.00009500,0.000
 00877,-0.00578782,0.00451174,0.00172006,0.02562284,0.00021740,0.000461
 04,-0.00557958,-0.00004766,0.00009900,0.00026723,-0.00003176,-0.000009
 77,-0.00000885,-0.00006610,0.00004238,0.00027495,0.00010244,0.00021404
 ,0.00135180,0.00382476,-0.00075580,-0.00048726,0.00263716,-0.00367488,
 -0.00337774,-0.03307548,-0.01242850,-0.01847283,-0.00004900,-0.0001346
 5,0.00031567,0.00007007,0.00009065,-0.00021843,0.00000428,-0.00012306,
 -0.00002891,-0.00005641,0.00008456,-0.00003052,-0.00002293,-0.00002160
 ,0.00002654,0.00000025,0.00002709,-0.00001103,-0.00001729,0.00009239,-
 0.00008317,0.00014387,-0.00004121,0.00004722,-0.00013121,-0.00010838,-
 0.00009759,0.00029642,0.00010729,0.00014004,-0.00000466,-0.00025949,-0
 .00076898,-0.00028346,-0.00039085,0.00544531,0.00722874,0.00088651,0.0
 0247881,-0.00002861,-0.00000718,0.00000586,0.00000158,0.00000778,0.000
 04188,0.00000188,0.00000085,-0.00001155,0.00000114,0.00000144,-0.00004
 432,-0.00000123,0.00000314,0.00002696,0.00000039,0.00000621,-0.0000200
 4,-0.00000934,-0.00003173,-0.00047000,-0.00000350,0.00003019,0.0000362
 5,0.01929824,-0.00020976,-0.00006800,0.00144409,-0.00016358,0.00007225
 ,0.00004294,-0.00005218,0.00002442,-0.00002266,0.00000706,-0.00003864,
 -0.00010488,-0.00003848,-0.00003696,-0.00058573,-0.00035521,0.00125425
 ,0.00223458,-0.00372380,-0.02139752,-0.02370847,-0.01217944,-0.1169117
 1,-0.13242675,-0.00004623,-0.00005076,0.00000523,0.00006242,0.00005680
 ,-0.00000220,0.00004063,-0.00010955,0.00000273,-0.00001169,0.00011525,
 -0.00000191,0.00003367,-0.00009174,-0.00000554,-0.00005091,0.00002992,
 0.00000487,-0.00003120,0.00003417,0.00002747,0.00016809,0.00003184,-0.
 00001051,-0.00014958,-0.00017428,0.00007656,0.00018660,0.00022000,0.00
 003786,-0.00006528,-0.00010742,-0.00007034,0.00012770,0.00006536,-0.00
 025012,0.00051225,0.01120561,0.01310737,0.00001105,0.00000912,0.000000
 20,0.00000277,0.00000437,0.00000019,0.00000200,0.00000073,0.00000112,0
 .00000446,0.00000325,0.00001564,0.00000328,0.00000222,-0.00001304,-0.0
 0000074,0.00000521,0.00000125,-0.00000001,0.00000625,-0.00000788,0.000
 08360,-0.00005581,0.00000569,0.01583252,0.12590136,-0.00171799,-0.0005
 6780,-0.00018612,0.00035534,-0.00024771,-0.00004903,-0.00003495,-0.000
 09161,-0.00000997,-0.00008046,0.00004488,0.00001742,-0.00013522,0.0004
 7576,0.00020032,0.00134330,0.00467233,-0.00184100,-0.00073872,-0.00394
 545,0.00402377,-0.01744328,-0.12716667,-0.26499722,-0.00011042,0.00010
 012,0.00000223,-0.00004992,0.00002946,-0.00000965,-0.00002524,0.000181
 22,-0.00000518,0.00018609,-0.00024738,0.00000366,-0.00003817,0.0001307
 9,0.00000119,0.00010527,-0.00010764,-0.00000345,-0.00016609,0.00010230
 ,-0.00000857,-0.00012761,0.00002821,-0.00000006,0.00032700,0.00018495,
 -0.00002660,-0.00023496,-0.00040294,-0.00001711,0.00039821,0.00056579,
 0.00009556,0.00074549,-0.00093957,-0.00006733,-0.00182998,-0.01301769,
 -0.01500962,0.00001218,-0.00000042,0.00001226,0.00000246,0.00000798,0.
 00000384,0.00000621,-0.00000277,0.00000256,0.00000083,0.00000490,-0.00
 000129,0.00000682,-0.00001029,0.00000557,-0.00000149,0.00001505,0.0000
 0380,0.00000229,0.00003081,0.00001964,-0.00000927,-0.00002881,-0.00001
 357,0.01925227,0.14020220,0.27785393\\0.00000250,0.00000107,-0.0000010
 4,-0.00000421,-0.00000008,0.00000092,0.00000103,0.00000114,0.00000030,
 -0.00000039,-0.00000105,0.00000090,-0.00000002,-0.00000071,-0.00000067
 ,0.,0.00000059,0.00000143,0.00000078,-0.00000188,-0.00000085,0.0000011
 8,0.00000043,0.00000044,0.00000300,-0.00000022,-0.00000059,-0.00000053
 ,0.00000130,-0.00000047,0.00000136,0.00000179,0.00000129,-0.00000130,-
 0.00000026,-0.00000020,-0.00000010,0.00000215,-0.00000025,0.00000038,0
 .00000028,-0.00000065,-0.00000212,0.00000049,-0.00000026,-0.00000002,-
 0.00000004,0.00000068,-0.00000156,-0.00000101,-0.00000019,-0.00000005,
 -0.00000004,-0.00000038,-0.00000010,-0.00000021,0.00000012,0.00000070,
 -0.00000189,-0.00000007,0.00000138,-0.00000141,-0.00000045,0.00000068,
 0.00000055,-0.00000004,0.00000031,0.00000142,-0.00000031,-0.00000034,0
 .00000072,0.00000014,-0.00000137,0.00000111,0.00000013,-0.00000104,0.0
 0000003,-0.00000021,-0.00000109,-0.00000068,-0.00000008,-0.00000028,-0
 .00000089,0.00000002,0.00000021,-0.00000149,0.00000004,0.00000102,-0.0
 0000123,0.00000032\\\@
 The archive entry for this job was punched.


 TO ERR IS HUMAN - AND TO BLAME IT ON A COMPUTER IS EVEN MORE SO.
 Job cpu time:       0 days  1 hours 43 minutes  1.6 seconds.
 Elapsed time:       0 days  0 hours  6 minutes 40.9 seconds.
 File lengths (MBytes):  RWF=   1648 Int=      0 D2E=      0 Chk=     20 Scr=     32
 Normal termination of Gaussian 16 at Wed Aug 16 12:07:45 2023.
