 Entering Gaussian System, Link 0=g16
 Initial command:
 /sw/arch/RHEL8/EB_production/2022/software/Gaussian/g16.c02/l1.exe "/scratch-local/calessandra.3116784/calessandra/Gau-2876654.inp" -scrdir="/scratch-local/calessandra.3116784/calessandra/"
 Entering Link 1 = /sw/arch/RHEL8/EB_production/2022/software/Gaussian/g16.c02/l1.exe PID=   2876657.
  
 Copyright (c) 1988-2021, Gaussian, Inc.  All Rights Reserved.
  
 This is part of the Gaussian(R) 16 program.  It is based on
 the Gaussian(R) 09 system (copyright 2009, Gaussian, Inc.),
 the Gaussian(R) 03 system (copyright 2003, Gaussian, Inc.),
 the Gaussian(R) 98 system (copyright 1998, Gaussian, Inc.),
 the Gaussian(R) 94 system (copyright 1995, Gaussian, Inc.),
 the Gaussian 92(TM) system (copyright 1992, Gaussian, Inc.),
 the Gaussian 90(TM) system (copyright 1990, Gaussian, Inc.),
 the Gaussian 88(TM) system (copyright 1988, Gaussian, Inc.),
 the Gaussian 86(TM) system (copyright 1986, Carnegie Mellon
 University), and the Gaussian 82(TM) system (copyright 1983,
 Carnegie Mellon University). Gaussian is a federally registered
 trademark of Gaussian, Inc.
  
 This software contains proprietary and confidential information,
 including trade secrets, belonging to Gaussian, Inc.
  
 This software is provided under written license and may be
 used, copied, transmitted, or stored only in accord with that
 written license.
  
 The following legend is applicable only to US Government
 contracts under FAR:
  
                    RESTRICTED RIGHTS LEGEND
  
 Use, reproduction and disclosure by the US Government is
 subject to restrictions as set forth in subparagraphs (a)
 and (c) of the Commercial Computer Software - Restricted
 Rights clause in FAR 52.227-19.
  
 Gaussian, Inc.
 340 Quinnipiac St., Bldg. 40, Wallingford CT 06492
  
  
 ---------------------------------------------------------------
 Warning -- This program may not be used in any manner that
 competes with the business of Gaussian, Inc. or will provide
 assistance to any competitor of Gaussian, Inc.  The licensee
 of this program is prohibited from giving any competitor of
 Gaussian, Inc. access to this program.  By using this program,
 the user acknowledges that Gaussian, Inc. is engaged in the
 business of creating and licensing software in the field of
 computational chemistry and represents and warrants to the
 licensee that it is not a competitor of Gaussian, Inc. and that
 it will not use this program in any manner prohibited above.
 ---------------------------------------------------------------
  

 Cite this work as:
 Gaussian 16, Revision C.02,
 M. J. Frisch, G. W. Trucks, H. B. Schlegel, G. E. Scuseria, 
 M. A. Robb, J. R. Cheeseman, G. Scalmani, V. Barone, 
 G. A. Petersson, H. Nakatsuji, X. Li, M. Caricato, A. V. Marenich, 
 J. Bloino, B. G. Janesko, R. Gomperts, B. Mennucci, H. P. Hratchian, 
 J. V. Ortiz, A. F. Izmaylov, J. L. Sonnenberg, D. Williams-Young, 
 F. Ding, F. Lipparini, F. Egidi, J. Goings, B. Peng, A. Petrone, 
 T. Henderson, D. Ranasinghe, V. G. Zakrzewski, J. Gao, N. Rega, 
 G. Zheng, W. Liang, M. Hada, M. Ehara, K. Toyota, R. Fukuda, 
 J. Hasegawa, M. Ishida, T. Nakajima, Y. Honda, O. Kitao, H. Nakai, 
 T. Vreven, K. Throssell, J. A. Montgomery, Jr., J. E. Peralta, 
 F. Ogliaro, M. J. Bearpark, J. J. Heyd, E. N. Brothers, K. N. Kudin, 
 V. N. Staroverov, T. A. Keith, R. Kobayashi, J. Normand, 
 K. Raghavachari, A. P. Rendell, J. C. Burant, S. S. Iyengar, 
 J. Tomasi, M. Cossi, J. M. Millam, M. Klene, C. Adamo, R. Cammi, 
 J. W. Ochterski, R. L. Martin, K. Morokuma, O. Farkas, 
 J. B. Foresman, and D. J. Fox, Gaussian, Inc., Wallingford CT, 2019.
 
 ******************************************
 Gaussian 16:  ES64L-G16RevC.02  7-Dec-2021
                21-Jul-2023 
 ******************************************
 %NProcShared=16
 Will use up to   16 processors via shared memory.
 %LindaWorkers=tcn26
 %Chk=corannulene+.chk
 %mem=9Gb
 SetLPE:    new flags="-opt 'Tsnet.Node.lindarsharg: ssh'  -nodelist 'tcn26.local.snellius.surf.nl' -env GAUSS_MDEF=1207959552 -env GAUSS_EXEDIR="/sw/arch/RHEL8/EB_production/2022/software/Gaussian/g16.c02/bsd:/sw/arch/RHEL8/EB_production/2022/software/Gaussian/g16.c02""
 Will use up to    1 processors via Linda.
 ---------------------------------------------------
 #n M062x/6-31G Opt=tight int=ultrafine freq=noraman
 ---------------------------------------------------
 1/7=10,18=20,19=15,26=4,38=1/1,3;
 2/9=110,12=2,17=6,18=5,40=1/2;
 3/5=1,6=6,11=2,25=1,30=1,71=1,74=-55,75=-5/1,2,3;
 4//1;
 5/5=2,38=5/2;
 6/7=2,8=2,9=2,10=2,28=1/1;
 7//1,2,3,16;
 1/7=10,18=20,19=15,26=4/3(2);
 2/9=110/2;
 99//99;
 2/9=110/2;
 3/5=1,6=6,11=2,25=1,30=1,71=1,74=-55,75=-5/1,2,3;
 4/5=5,16=3,69=1/1;
 5/5=2,38=5/2;
 7//1,2,3,16;
 1/7=10,18=20,19=15,26=4/3(-5);
 2/9=110/2;
 6/7=2,8=2,9=2,10=2,19=2,28=1/1;
 99/9=1/99;
 -----------
 Corannulene
 -----------
 Symbolic Z-matrix:
 Charge =  1 Multiplicity = 2
 C                    -0.64558  -1.23112  -0.09 
 C                    -0.73957  -0.29065   1.1969 
 C                    -0.7773    0.98062   0.80149 
 C                    -0.4373    0.98062  -0.58149 
 C                    -0.47957  -0.49065  -1.0769 
 C                    -0.11798  -2.50725  -0.11 
 C                     0.29816  -2.92986   1.17297 
 C                     0.32789  -2.04253   2.27244 
 C                    -0.07447  -0.64324   2.24996 
 C                     0.27524   0.55658   3.26892 
 C                     0.27166   1.66851   2.95572 
 C                    -0.14339   2.03692   1.45464 
 C                     0.21568   3.23848   0.69025 
 C                     0.21568   3.23848  -0.69025 
 C                    -0.04339   2.03692  -1.45464 
 C                     0.27166   1.66851  -2.59572 
 C                     0.27524   0.07658  -3.14892 
 C                    -0.07447  -0.92324  -2.44996 
 C                     0.18789  -2.34253  -2.59244 
 C                     0.17816  -3.08986  -1.45297 
 H                     0.72503  -3.93224   1.32212 
 H                     0.73297  -2.4515    3.20148 
 H                     0.5238    0.23249   4.29554 
 H                     0.51148   2.51625   3.59753 
 H                     0.53399   4.06121   1.28602 
 H                     0.53399   4.21121  -1.14602 
 H                     0.81148   2.31625  -3.31753 
 H                     0.7838   -0.01249  -4.11554 
 H                     0.49297  -2.7515   -3.54148 
 H                     0.45503  -4.13224  -1.50212 
 

 GradGradGradGradGradGradGradGradGradGradGradGradGradGradGradGradGradGrad
 Berny optimization.
 Initialization pass.
                           ----------------------------
                           !    Initial Parameters    !
                           ! (Angstroms and Degrees)  !
 --------------------------                            --------------------------
 ! Name  Definition              Value          Derivative Info.                !
 --------------------------------------------------------------------------------
 ! R1    R(1,2)                  1.5967         estimate D2E/DX2                !
 ! R2    R(1,5)                  1.2449         estimate D2E/DX2                !
 ! R3    R(1,6)                  1.381          estimate D2E/DX2                !
 ! R4    R(2,3)                  1.3319         estimate D2E/DX2                !
 ! R5    R(2,9)                  1.2945         estimate D2E/DX2                !
 ! R6    R(3,4)                  1.4242         estimate D2E/DX2                !
 ! R7    R(3,12)                 1.3944         estimate D2E/DX2                !
 ! R8    R(4,5)                  1.553          estimate D2E/DX2                !
 ! R9    R(4,15)                 1.4259         estimate D2E/DX2                !
 ! R10   R(5,18)                 1.4955         estimate D2E/DX2                !
 ! R11   R(6,7)                  1.4134         estimate D2E/DX2                !
 ! R12   R(6,20)                 1.4935         estimate D2E/DX2                !
 ! R13   R(7,8)                  1.4132         estimate D2E/DX2                !
 ! R14   R(7,21)                 1.0997         estimate D2E/DX2                !
 ! R15   R(8,9)                  1.4562         estimate D2E/DX2                !
 ! R16   R(8,22)                 1.0929         estimate D2E/DX2                !
 ! R17   R(9,10)                 1.6125         estimate D2E/DX2                !
 ! R18   R(10,11)                1.1552         estimate D2E/DX2                !
 ! R19   R(10,23)                1.1049         estimate D2E/DX2                !
 ! R20   R(11,12)                1.6004         estimate D2E/DX2                !
 ! R21   R(11,24)                1.09           estimate D2E/DX2                !
 ! R22   R(12,13)                1.4687         estimate D2E/DX2                !
 ! R23   R(13,14)                1.3805         estimate D2E/DX2                !
 ! R24   R(13,25)                1.0645         estimate D2E/DX2                !
 ! R25   R(14,15)                1.4475         estimate D2E/DX2                !
 ! R26   R(14,26)                1.1204         estimate D2E/DX2                !
 ! R27   R(15,16)                1.2398         estimate D2E/DX2                !
 ! R28   R(16,17)                1.6853         estimate D2E/DX2                !
 ! R29   R(16,27)                1.1099         estimate D2E/DX2                !
 ! R30   R(17,18)                1.2691         estimate D2E/DX2                !
 ! R31   R(17,28)                1.0959         estimate D2E/DX2                !
 ! R32   R(18,19)                1.4503         estimate D2E/DX2                !
 ! R33   R(19,20)                1.3627         estimate D2E/DX2                !
 ! R34   R(19,29)                1.0775         estimate D2E/DX2                !
 ! R35   R(20,30)                1.0796         estimate D2E/DX2                !
 ! A1    A(2,1,5)              107.2443         estimate D2E/DX2                !
 ! A2    A(2,1,6)              125.34           estimate D2E/DX2                !
 ! A3    A(5,1,6)              119.1557         estimate D2E/DX2                !
 ! A4    A(1,2,3)              108.9411         estimate D2E/DX2                !
 ! A5    A(1,2,9)              117.7099         estimate D2E/DX2                !
 ! A6    A(3,2,9)              121.0686         estimate D2E/DX2                !
 ! A7    A(2,3,4)              106.3516         estimate D2E/DX2                !
 ! A8    A(2,3,12)             124.8296         estimate D2E/DX2                !
 ! A9    A(4,3,12)             110.2636         estimate D2E/DX2                !
 ! A10   A(3,4,5)              107.6545         estimate D2E/DX2                !
 ! A11   A(3,4,15)             131.3435         estimate D2E/DX2                !
 ! A12   A(5,4,15)             120.9285         estimate D2E/DX2                !
 ! A13   A(1,5,4)              108.3144         estimate D2E/DX2                !
 ! A14   A(1,5,18)             126.2926         estimate D2E/DX2                !
 ! A15   A(4,5,18)             124.0242         estimate D2E/DX2                !
 ! A16   A(1,6,7)              112.0623         estimate D2E/DX2                !
 ! A17   A(1,6,20)             116.6937         estimate D2E/DX2                !
 ! A18   A(7,6,20)             129.8795         estimate D2E/DX2                !
 ! A19   A(6,7,8)              121.6455         estimate D2E/DX2                !
 ! A20   A(6,7,21)             120.6611         estimate D2E/DX2                !
 ! A21   A(8,7,21)             117.3001         estimate D2E/DX2                !
 ! A22   A(7,8,9)              125.8413         estimate D2E/DX2                !
 ! A23   A(7,8,22)             115.7341         estimate D2E/DX2                !
 ! A24   A(9,8,22)             118.3677         estimate D2E/DX2                !
 ! A25   A(2,9,8)              114.5999         estimate D2E/DX2                !
 ! A26   A(2,9,10)             115.0133         estimate D2E/DX2                !
 ! A27   A(8,9,10)             130.1906         estimate D2E/DX2                !
 ! A28   A(9,10,11)            122.9705         estimate D2E/DX2                !
 ! A29   A(9,10,23)            114.6885         estimate D2E/DX2                !
 ! A30   A(11,10,23)           122.3407         estimate D2E/DX2                !
 ! A31   A(10,11,12)           118.4684         estimate D2E/DX2                !
 ! A32   A(10,11,24)           126.0354         estimate D2E/DX2                !
 ! A33   A(12,11,24)           115.4872         estimate D2E/DX2                !
 ! A34   A(3,12,11)            112.5119         estimate D2E/DX2                !
 ! A35   A(3,12,13)            119.1525         estimate D2E/DX2                !
 ! A36   A(11,12,13)           127.8136         estimate D2E/DX2                !
 ! A37   A(12,13,14)           121.3635         estimate D2E/DX2                !
 ! A38   A(12,13,25)           114.4653         estimate D2E/DX2                !
 ! A39   A(14,13,25)           124.0331         estimate D2E/DX2                !
 ! A40   A(13,14,15)           121.8763         estimate D2E/DX2                !
 ! A41   A(13,14,26)           114.0038         estimate D2E/DX2                !
 ! A42   A(15,14,26)           123.8309         estimate D2E/DX2                !
 ! A43   A(4,15,14)            109.9382         estimate D2E/DX2                !
 ! A44   A(4,15,16)            114.4349         estimate D2E/DX2                !
 ! A45   A(14,15,16)           133.4117         estimate D2E/DX2                !
 ! A46   A(15,16,17)           125.686          estimate D2E/DX2                !
 ! A47   A(15,16,27)           123.2795         estimate D2E/DX2                !
 ! A48   A(17,16,27)           109.6786         estimate D2E/DX2                !
 ! A49   A(16,17,18)           124.2511         estimate D2E/DX2                !
 ! A50   A(16,17,28)           111.5486         estimate D2E/DX2                !
 ! A51   A(18,17,28)           123.3441         estimate D2E/DX2                !
 ! A52   A(5,18,17)            110.6361         estimate D2E/DX2                !
 ! A53   A(5,18,19)            114.9775         estimate D2E/DX2                !
 ! A54   A(17,18,19)           131.8376         estimate D2E/DX2                !
 ! A55   A(18,19,20)           116.9508         estimate D2E/DX2                !
 ! A56   A(18,19,29)           120.6089         estimate D2E/DX2                !
 ! A57   A(20,19,29)           122.0297         estimate D2E/DX2                !
 ! A58   A(6,20,19)            122.6405         estimate D2E/DX2                !
 ! A59   A(6,20,30)            117.9311         estimate D2E/DX2                !
 ! A60   A(19,20,30)           119.3126         estimate D2E/DX2                !
 ! D1    D(5,1,2,3)              7.5423         estimate D2E/DX2                !
 ! D2    D(5,1,2,9)           -135.2582         estimate D2E/DX2                !
 ! D3    D(6,1,2,3)            155.2618         estimate D2E/DX2                !
 ! D4    D(6,1,2,9)             12.4613         estimate D2E/DX2                !
 ! D5    D(2,1,5,4)              0.2759         estimate D2E/DX2                !
 ! D6    D(2,1,5,18)           167.2668         estimate D2E/DX2                !
 ! D7    D(6,1,5,4)           -149.7995         estimate D2E/DX2                !
 ! D8    D(6,1,5,18)            17.1914         estimate D2E/DX2                !
 ! D9    D(2,1,6,7)              2.2688         estimate D2E/DX2                !
 ! D10   D(2,1,6,20)          -165.7316         estimate D2E/DX2                !
 ! D11   D(5,1,6,7)            146.5323         estimate D2E/DX2                !
 ! D12   D(5,1,6,20)           -21.4681         estimate D2E/DX2                !
 ! D13   D(1,2,3,4)            -11.8936         estimate D2E/DX2                !
 ! D14   D(1,2,3,12)          -141.9734         estimate D2E/DX2                !
 ! D15   D(9,2,3,4)            129.432          estimate D2E/DX2                !
 ! D16   D(9,2,3,12)            -0.6478         estimate D2E/DX2                !
 ! D17   D(1,2,9,8)            -18.4927         estimate D2E/DX2                !
 ! D18   D(1,2,9,10)           156.9447         estimate D2E/DX2                !
 ! D19   D(3,2,9,8)           -156.6087         estimate D2E/DX2                !
 ! D20   D(3,2,9,10)            18.8287         estimate D2E/DX2                !
 ! D21   D(2,3,4,5)             12.0654         estimate D2E/DX2                !
 ! D22   D(2,3,4,15)          -164.7567         estimate D2E/DX2                !
 ! D23   D(12,3,4,5)           150.0359         estimate D2E/DX2                !
 ! D24   D(12,3,4,15)          -26.7862         estimate D2E/DX2                !
 ! D25   D(2,3,12,11)          -17.2487         estimate D2E/DX2                !
 ! D26   D(2,3,12,13)          155.1064         estimate D2E/DX2                !
 ! D27   D(4,3,12,11)         -145.7459         estimate D2E/DX2                !
 ! D28   D(4,3,12,13)           26.6092         estimate D2E/DX2                !
 ! D29   D(3,4,5,1)             -7.4715         estimate D2E/DX2                !
 ! D30   D(3,4,5,18)          -174.8262         estimate D2E/DX2                !
 ! D31   D(15,4,5,1)           169.7475         estimate D2E/DX2                !
 ! D32   D(15,4,5,18)            2.3928         estimate D2E/DX2                !
 ! D33   D(3,4,15,14)            9.8559         estimate D2E/DX2                !
 ! D34   D(3,4,15,16)          175.2748         estimate D2E/DX2                !
 ! D35   D(5,4,15,14)         -166.6134         estimate D2E/DX2                !
 ! D36   D(5,4,15,16)           -1.1945         estimate D2E/DX2                !
 ! D37   D(1,5,18,17)         -166.4745         estimate D2E/DX2                !
 ! D38   D(1,5,18,19)           -2.3786         estimate D2E/DX2                !
 ! D39   D(4,5,18,17)           -1.4169         estimate D2E/DX2                !
 ! D40   D(4,5,18,19)          162.679          estimate D2E/DX2                !
 ! D41   D(1,6,7,8)             -8.4076         estimate D2E/DX2                !
 ! D42   D(1,6,7,21)           178.9855         estimate D2E/DX2                !
 ! D43   D(20,6,7,8)           157.585          estimate D2E/DX2                !
 ! D44   D(20,6,7,21)          -15.0219         estimate D2E/DX2                !
 ! D45   D(1,6,20,19)           12.6001         estimate D2E/DX2                !
 ! D46   D(1,6,20,30)         -171.3429         estimate D2E/DX2                !
 ! D47   D(7,6,20,19)         -152.8581         estimate D2E/DX2                !
 ! D48   D(7,6,20,30)           23.1988         estimate D2E/DX2                !
 ! D49   D(6,7,8,9)              1.4156         estimate D2E/DX2                !
 ! D50   D(6,7,8,22)          -175.7824         estimate D2E/DX2                !
 ! D51   D(21,7,8,9)           174.2602         estimate D2E/DX2                !
 ! D52   D(21,7,8,22)           -2.9378         estimate D2E/DX2                !
 ! D53   D(7,8,9,2)             13.5792         estimate D2E/DX2                !
 ! D54   D(7,8,9,10)          -161.0059         estimate D2E/DX2                !
 ! D55   D(22,8,9,2)          -169.2893         estimate D2E/DX2                !
 ! D56   D(22,8,9,10)           16.1256         estimate D2E/DX2                !
 ! D57   D(2,9,10,11)          -19.9948         estimate D2E/DX2                !
 ! D58   D(2,9,10,23)          160.2151         estimate D2E/DX2                !
 ! D59   D(8,9,10,11)          154.5721         estimate D2E/DX2                !
 ! D60   D(8,9,10,23)          -25.2179         estimate D2E/DX2                !
 ! D61   D(9,10,11,12)           1.9577         estimate D2E/DX2                !
 ! D62   D(9,10,11,24)        -179.1787         estimate D2E/DX2                !
 ! D63   D(23,10,11,12)       -178.2681         estimate D2E/DX2                !
 ! D64   D(23,10,11,24)          0.5956         estimate D2E/DX2                !
 ! D65   D(10,11,12,3)          15.3085         estimate D2E/DX2                !
 ! D66   D(10,11,12,13)       -156.2347         estimate D2E/DX2                !
 ! D67   D(24,11,12,3)        -163.6735         estimate D2E/DX2                !
 ! D68   D(24,11,12,13)         24.7832         estimate D2E/DX2                !
 ! D69   D(3,12,13,14)         -14.5017         estimate D2E/DX2                !
 ! D70   D(3,12,13,25)         169.6063         estimate D2E/DX2                !
 ! D71   D(11,12,13,14)        156.5489         estimate D2E/DX2                !
 ! D72   D(11,12,13,25)        -19.3431         estimate D2E/DX2                !
 ! D73   D(12,13,14,15)         -4.4707         estimate D2E/DX2                !
 ! D74   D(12,13,14,26)       -178.5185         estimate D2E/DX2                !
 ! D75   D(25,13,14,15)        171.0165         estimate D2E/DX2                !
 ! D76   D(25,13,14,26)         -3.0313         estimate D2E/DX2                !
 ! D77   D(13,14,15,4)           6.9599         estimate D2E/DX2                !
 ! D78   D(13,14,15,16)       -154.6482         estimate D2E/DX2                !
 ! D79   D(26,14,15,4)        -179.5883         estimate D2E/DX2                !
 ! D80   D(26,14,15,16)         18.8036         estimate D2E/DX2                !
 ! D81   D(4,15,16,17)          -0.4868         estimate D2E/DX2                !
 ! D82   D(4,15,16,27)        -165.8001         estimate D2E/DX2                !
 ! D83   D(14,15,16,17)        160.5002         estimate D2E/DX2                !
 ! D84   D(14,15,16,27)         -4.8131         estimate D2E/DX2                !
 ! D85   D(15,16,17,18)          1.4216         estimate D2E/DX2                !
 ! D86   D(15,16,17,28)       -168.2651         estimate D2E/DX2                !
 ! D87   D(27,16,17,18)        168.4127         estimate D2E/DX2                !
 ! D88   D(27,16,17,28)         -1.274          estimate D2E/DX2                !
 ! D89   D(16,17,18,5)          -0.2751         estimate D2E/DX2                !
 ! D90   D(16,17,18,19)       -160.7996         estimate D2E/DX2                !
 ! D91   D(28,17,18,5)         168.2271         estimate D2E/DX2                !
 ! D92   D(28,17,18,19)          7.7026         estimate D2E/DX2                !
 ! D93   D(5,18,19,20)          -6.7656         estimate D2E/DX2                !
 ! D94   D(5,18,19,29)        -179.5583         estimate D2E/DX2                !
 ! D95   D(17,18,19,20)        153.1011         estimate D2E/DX2                !
 ! D96   D(17,18,19,29)        -19.6916         estimate D2E/DX2                !
 ! D97   D(18,19,20,6)           1.4281         estimate D2E/DX2                !
 ! D98   D(18,19,20,30)       -174.5766         estimate D2E/DX2                !
 ! D99   D(29,19,20,6)         174.1106         estimate D2E/DX2                !
 ! D100  D(29,19,20,30)         -1.894          estimate D2E/DX2                !
 --------------------------------------------------------------------------------
 Trust Radius=3.00D-01 FncErr=1.00D-07 GrdErr=1.00D-06 EigMax=2.50D+02 EigMin=1.00D-04
 Number of steps in this run=    180 maximum allowed number of steps=    180.
 GradGradGradGradGradGradGradGradGradGradGradGradGradGradGradGradGradGrad

                          Input orientation:                          
 ---------------------------------------------------------------------
 Center     Atomic      Atomic             Coordinates (Angstroms)
 Number     Number       Type             X           Y           Z
 ---------------------------------------------------------------------
      1          6           0       -0.645577   -1.231120   -0.090000
      2          6           0       -0.739567   -0.290654    1.196899
      3          6           0       -0.777304    0.980616    0.801492
      4          6           0       -0.437304    0.980616   -0.581492
      5          6           0       -0.479567   -0.490654   -1.076899
      6          6           0       -0.117980   -2.507248   -0.110000
      7          6           0        0.298156   -2.929856    1.172965
      8          6           0        0.327892   -2.042528    2.272444
      9          6           0       -0.074469   -0.643244    2.249961
     10          6           0        0.275237    0.556579    3.268923
     11          6           0        0.271663    1.668512    2.955721
     12          6           0       -0.143389    2.036916    1.454636
     13          6           0        0.215681    3.238475    0.690249
     14          6           0        0.215681    3.238475   -0.690249
     15          6           0       -0.043389    2.036916   -1.454636
     16          6           0        0.271663    1.668512   -2.595721
     17          6           0        0.275237    0.076579   -3.148923
     18          6           0       -0.074469   -0.923244   -2.449961
     19          6           0        0.187892   -2.342528   -2.592444
     20          6           0        0.178156   -3.089856   -1.452965
     21          1           0        0.725031   -3.932240    1.322124
     22          1           0        0.732967   -2.451503    3.201484
     23          1           0        0.523800    0.232488    4.295538
     24          1           0        0.511476    2.516249    3.597534
     25          1           0        0.533988    4.061210    1.286017
     26          1           0        0.533988    4.211210   -1.146017
     27          1           0        0.811476    2.316249   -3.317534
     28          1           0        0.783800   -0.012488   -4.115538
     29          1           0        0.492967   -2.751503   -3.541484
     30          1           0        0.455031   -4.132240   -1.502124
 ---------------------------------------------------------------------
                    Distance matrix (angstroms):
                    1          2          3          4          5
     1  C    0.000000
     2  C    1.596690   0.000000
     3  C    2.388281   1.331878   0.000000
     4  C    2.275240   2.206845   1.424165   0.000000
     5  C    1.244917   2.297337   2.404503   1.553013   0.000000
     6  C    1.381036   2.647196   3.664795   3.534044   2.265456
     7  C    2.317632   2.835988   4.072640   4.348656   3.408291
     8  C    2.680889   2.316318   3.539005   4.227278   3.778677
     9  C    2.479351   1.294455   2.286692   3.284158   3.354905
    10  C    3.914860   2.457827   2.715855   3.938682   4.533497
    11  C    4.304139   2.820350   2.492837   3.672562   4.635555
    12  C    3.649404   2.416493   1.394351   2.312568   3.593090
    13  C    4.618207   3.691063   2.469073   2.672385   4.184804
    14  C    4.591225   4.114435   2.882575   2.352901   3.813040
    15  C    3.592342   3.596232   2.597020   1.425945   2.592595
    16  C    3.940537   4.386899   3.621407   2.243425   2.744661
    17  C    3.451809   4.477818   4.186992   2.813663   2.277008
    18  C    2.447523   3.760600   3.832833   2.692120   1.495506
    19  C    2.862189   4.407889   4.847029   3.934220   2.484314
    20  C    2.447674   3.962263   4.750181   4.207968   2.707374
    21  H    3.341962   3.927070   5.163741   5.395455   4.364732
    22  H    3.771417   3.294842   4.452002   5.240218   4.860013
    23  H    4.768913   3.386936   3.802752   5.026812   5.512963
    24  H    5.383257   3.899598   3.440490   4.552209   5.645702
    25  H    5.594064   4.535262   3.382944   3.731093   5.227823
    26  H    5.667936   5.232397   3.993622   3.420356   4.810363
    27  H    5.012365   5.438914   4.612430   3.290789   3.816535
    28  H    4.442200   5.533535   5.253616   3.868699   3.325367
    29  H    3.939618   5.479707   5.865470   4.853418   3.483022
    30  H    3.409095   4.844540   5.741654   5.271159   3.783575
                    6          7          8          9         10
     6  C    0.000000
     7  C    1.413423   0.000000
     8  C    2.467956   1.413184   0.000000
     9  C    3.007627   2.554871   1.456158   0.000000
    10  C    4.578076   4.068021   2.784080   1.612499   0.000000
    11  C    5.194944   4.931928   3.773837   2.441745   1.155207
    12  C    4.806054   4.994309   4.187216   2.796525   2.378715
    13  C    5.810771   6.187740   5.514066   4.193403   3.720977
    14  C    5.784579   6.444119   6.056330   4.878193   4.782380
    15  C    4.739519   5.629366   5.538126   4.572555   4.960336
    16  C    4.875203   5.945476   6.121602   5.380024   5.969125
    17  C    4.008221   5.264778   5.821049   5.457874   6.435771
    18  C    2.826018   4.158237   4.869887   4.708255   5.917584
    19  C    2.506635   3.812534   4.876139   5.138607   6.539730
    20  C    1.493547   2.633535   3.872724   4.445379   5.966753
    21  H    2.189121   1.099656   2.152171   3.509640   4.913434
    22  H    3.419524   2.129031   1.092914   2.197077   3.043456
    23  H    5.227504   4.449921   3.050735   2.304174   1.104879
    24  H    6.275153   5.965241   4.751001   3.484491   2.001025
    25  H    6.746745   6.995956   6.186367   4.840588   4.035010
    26  H    6.829061   7.511865   7.130048   5.955553   5.737157
    27  H    5.866710   6.924572   7.104973   6.367142   6.838524
    28  H    4.804307   6.059303   6.718276   6.453995   7.423795
    29  H    3.493995   4.721842   5.859322   6.189311   7.574461
    30  H    2.215164   2.937080   4.316298   5.150884   6.691804
                   11         12         13         14         15
    11  C    0.000000
    12  C    1.600389   0.000000
    13  C    2.756861   1.468660   0.000000
    14  C    3.970014   2.484594   1.380498   0.000000
    15  C    4.436917   2.910990   2.472123   1.447463   0.000000
    16  C    5.551442   4.088200   3.642186   2.469563   1.239780
    17  C    6.308799   5.021048   4.973970   4.005772   2.610565
    18  C    6.004865   4.900324   5.221591   4.527767   3.123169
    19  C    6.846721   5.972280   6.474908   5.896330   4.530743
    20  C    6.487474   5.902654   6.681508   6.374239   5.131557
    21  H    5.851718   6.033451   7.216499   7.465135   6.628098
    22  H    4.153038   4.895445   6.240972   6.912960   6.513685
    23  H    1.980113   3.431009   4.704148   5.830006   6.053277
    24  H    1.089996   2.291423   3.010218   4.358232   5.105101
    25  H    2.929459   2.141270   1.064496   2.164218   3.455765
    26  H    4.833051   3.456847   2.102238   1.120383   2.270719
    27  H    6.329667   4.874772   4.155454   2.847472   2.068625
    28  H    7.286340   6.007210   5.829846   4.756482   3.459002
    29  H    7.861246   6.949469   7.339229   6.639749   5.250864
    30  H    7.318110   6.867243   7.693584   7.419156   6.189440
                   16         17         18         19         20
    16  C    0.000000
    17  C    1.685318   0.000000
    18  C    2.618827   1.269050   0.000000
    19  C    4.011916   2.483823   1.450345   0.000000
    20  C    4.894558   3.593328   2.398339   1.362720   0.000000
    21  H    6.850071   6.021894   4.891000   4.259054   2.951237
    22  H    7.127055   6.850430   5.909853   5.820531   4.730666
    23  H    7.043805   7.450241   6.869891   7.361239   6.648513
    24  H    6.255604   7.177916   6.981808   7.875801   7.552950
    25  H    4.567462   5.967657   6.258796   7.494672   7.665924
    26  H    2.938668   4.601495   5.332270   6.720373   7.316174
    27  H    1.109944   2.309135   3.468702   4.755924   5.753580
    28  H    2.323336   1.095862   2.083326   2.846754   4.114158
    29  H    4.525481   2.863487   2.203619   1.077501   2.139042
    30  H    5.905785   4.523100   3.387687   2.112636   1.079648
                   21         22         23         24         25
    21  H    0.000000
    22  H    2.392622   0.000000
    23  H    5.121196   2.905944   0.000000
    24  H    6.841499   4.988434   2.388080   0.000000
    25  H    7.995814   6.791468   4.869952   2.780382   0.000000
    26  H    8.511404   7.958147   6.740983   5.037328   2.436655
    27  H    7.783156   8.076832   7.898334   6.924461   4.930981
    28  H    6.703438   7.712988   8.418659   8.121585   6.770097
    29  H    5.010257   6.753904   8.385945   8.872155   8.349821
    30  H    2.844165   5.002605   7.257304   8.379266   8.655206
                   26         27         28         29         30
    26  H    0.000000
    27  H    2.895404   0.000000
    28  H    5.169147   2.461827   0.000000
    29  H    7.363377   5.082687   2.813596   0.000000
    30  H    8.351419   6.708635   4.889824   2.463100   0.000000
 Stoichiometry    C20H10(1+,2)
 Framework group  C1[X(C20H10)]
 Deg. of freedom    84
 Full point group                 C1      NOp   1
 Largest Abelian subgroup         C1      NOp   1
 Largest concise Abelian subgroup C1      NOp   1
                         Standard orientation:                         
 ---------------------------------------------------------------------
 Center     Atomic      Atomic             Coordinates (Angstroms)
 Number     Number       Type             X           Y           Z
 ---------------------------------------------------------------------
      1          6           0       -1.015982   -0.700314    0.645550
      2          6           0        0.519454   -1.129565    0.732711
      3          6           0        1.273446   -0.032409    0.773252
      4          6           0        0.416505    1.055498    0.441052
      5          6           0       -1.045624    0.533908    0.485440
      6          6           0       -2.032403   -1.471877    0.117496
      7          6           0       -1.571686   -2.739200   -0.306056
      8          6           0       -0.194363   -3.053540   -0.341586
      9          6           0        0.892113   -2.171800    0.061529
     10          6           0        2.464067   -2.227995   -0.293372
     11          6           0        3.143667   -1.293857   -0.287529
     12          6           0        2.505383    0.111255    0.136144
     13          6           0        2.975026    1.456964   -0.218068
     14          6           0        2.120690    2.541317   -0.210287
     15          6           0        0.704634    2.396901    0.052543
     16          6           0       -0.291905    3.066690   -0.256239
     17          6           0       -1.884726    2.516038   -0.257416
     18          6           0       -2.236425    1.346612    0.087892
     19          6           0       -3.440263    0.581414   -0.174305
     20          6           0       -3.322075   -0.776168   -0.171330
     21          1           0       -2.268081   -3.474697   -0.734219
     22          1           0        0.058067   -4.034477   -0.752077
     23          1           0        2.844049   -3.233781   -0.547864
     24          1           0        4.206001   -1.272222   -0.530571
     25          1           0        3.988980    1.499663   -0.539355
     26          1           0        2.601713    3.502808   -0.525579
     27          1           0       -0.231504    4.037065   -0.791682
     28          1           0       -2.554481    3.222568   -0.760564
     29          1           0       -4.349790    1.075200   -0.474211
     30          1           0       -4.172151   -1.381351   -0.448396
 ---------------------------------------------------------------------
 Rotational constants (GHZ):           0.5508083           0.4662749           0.2619534
 Standard basis: 6-31G (6D, 7F)
 There are   200 symmetry adapted cartesian basis functions of A   symmetry.
 There are   200 symmetry adapted basis functions of A   symmetry.
   200 basis functions,   480 primitive gaussians,   200 cartesian basis functions
    65 alpha electrons       64 beta electrons
       nuclear repulsion energy      1383.2504265466 Hartrees.
 NAtoms=   30 NActive=   30 NUniq=   30 SFac= 1.00D+00 NAtFMM=   60 NAOKFM=F Big=F
 Integral buffers will be    131072 words long.
 Raffenetti 2 integral format.
 Two-electron integral symmetry is turned on.
 One-electron integrals computed using PRISM.
 NBasis=   200 RedAO= T EigKep=  4.29D-04  NBF=   200
 NBsUse=   200 1.00D-06 EigRej= -1.00D+00 NBFU=   200
 ExpMin= 1.61D-01 ExpMax= 3.05D+03 ExpMxC= 4.57D+02 IAcc=3 IRadAn=         5 AccDes= 0.00D+00
 Harris functional with IExCor= 1009 and IRadAn=       5 diagonalized for initial guess.
 HarFok:  IExCor= 1009 AccDes= 0.00D+00 IRadAn=         5 IDoV= 1 UseB2=F ITyADJ=14
 ICtDFT=  3500011 ScaDFX=  1.000000  1.000000  1.000000  1.000000
 FoFCou: FMM=F IPFlag=           0 FMFlag=      100000 FMFlg1=           0
         NFxFlg=           0 DoJE=T BraDBF=F KetDBF=T FulRan=T
         wScrn=  0.000000 ICntrl=       500 IOpCl=  0 I1Cent=   200000004 NGrid=           0
         NMat0=    1 NMatS0=      1 NMatT0=    0 NMatD0=    1 NMtDS0=    0 NMtDT0=    0
 Petite list used in FoFCou.
 Initial guess <Sx>= 0.0000 <Sy>= 0.0000 <Sz>= 0.5000 <S**2>= 0.7500 S= 0.5000
 Requested convergence on RMS density matrix=1.00D-08 within 128 cycles.
 Requested convergence on MAX density matrix=1.00D-06.
 Requested convergence on             energy=1.00D-06.
 No special actions if energy rises.
 Integral accuracy reduced to 1.0D-05 until final iterations.
 Initial convergence to 1.0D-05 achieved.  Increase integral accuracy.
 SCF Done:  E(UM062X) =  -767.140084458     A.U. after   21 cycles
            NFock= 21  Conv=0.89D-08     -V/T= 2.0034
 <Sx>= 0.0000 <Sy>= 0.0000 <Sz>= 0.5000 <S**2>= 0.7758 S= 0.5128
 <L.S>=  0.00000000000    
 Annihilation of the first spin contaminant:
 S**2 before annihilation     0.7758,   after     0.7505

 **********************************************************************

            Population analysis using the SCF Density.

 **********************************************************************

 Orbital symmetries:
 Alpha Orbitals:
       Occupied  (A) (A) (A) (A) (A) (A) (A) (A) (A) (A) (A) (A)
                 (A) (A) (A) (A) (A) (A) (A) (A) (A) (A) (A) (A)
                 (A) (A) (A) (A) (A) (A) (A) (A) (A) (A) (A) (A)
                 (A) (A) (A) (A) (A) (A) (A) (A) (A) (A) (A) (A)
                 (A) (A) (A) (A) (A) (A) (A) (A) (A) (A) (A) (A)
                 (A) (A) (A) (A) (A)
       Virtual   (A) (A) (A) (A) (A) (A) (A) (A) (A) (A) (A) (A)
                 (A) (A) (A) (A) (A) (A) (A) (A) (A) (A) (A) (A)
                 (A) (A) (A) (A) (A) (A) (A) (A) (A) (A) (A) (A)
                 (A) (A) (A) (A) (A) (A) (A) (A) (A) (A) (A) (A)
                 (A) (A) (A) (A) (A) (A) (A) (A) (A) (A) (A) (A)
                 (A) (A) (A) (A) (A) (A) (A) (A) (A) (A) (A) (A)
                 (A) (A) (A) (A) (A) (A) (A) (A) (A) (A) (A) (A)
                 (A) (A) (A) (A) (A) (A) (A) (A) (A) (A) (A) (A)
                 (A) (A) (A) (A) (A) (A) (A) (A) (A) (A) (A) (A)
                 (A) (A) (A) (A) (A) (A) (A) (A) (A) (A) (A) (A)
                 (A) (A) (A) (A) (A) (A) (A) (A) (A) (A) (A) (A)
                 (A) (A) (A)
 Beta  Orbitals:
       Occupied  (A) (A) (A) (A) (A) (A) (A) (A) (A) (A) (A) (A)
                 (A) (A) (A) (A) (A) (A) (A) (A) (A) (A) (A) (A)
                 (A) (A) (A) (A) (A) (A) (A) (A) (A) (A) (A) (A)
                 (A) (A) (A) (A) (A) (A) (A) (A) (A) (A) (A) (A)
                 (A) (A) (A) (A) (A) (A) (A) (A) (A) (A) (A) (A)
                 (A) (A) (A) (A)
       Virtual   (A) (A) (A) (A) (A) (A) (A) (A) (A) (A) (A) (A)
                 (A) (A) (A) (A) (A) (A) (A) (A) (A) (A) (A) (A)
                 (A) (A) (A) (A) (A) (A) (A) (A) (A) (A) (A) (A)
                 (A) (A) (A) (A) (A) (A) (A) (A) (A) (A) (A) (A)
                 (A) (A) (A) (A) (A) (A) (A) (A) (A) (A) (A) (A)
                 (A) (A) (A) (A) (A) (A) (A) (A) (A) (A) (A) (A)
                 (A) (A) (A) (A) (A) (A) (A) (A) (A) (A) (A) (A)
                 (A) (A) (A) (A) (A) (A) (A) (A) (A) (A) (A) (A)
                 (A) (A) (A) (A) (A) (A) (A) (A) (A) (A) (A) (A)
                 (A) (A) (A) (A) (A) (A) (A) (A) (A) (A) (A) (A)
                 (A) (A) (A) (A) (A) (A) (A) (A) (A) (A) (A) (A)
                 (A) (A) (A) (A)
 The electronic state is 2-A.
 Alpha  occ. eigenvalues --  -10.74729 -10.74327 -10.73716 -10.73663 -10.72939
 Alpha  occ. eigenvalues --  -10.72432 -10.72045 -10.72013 -10.71952 -10.71800
 Alpha  occ. eigenvalues --  -10.71488 -10.71322 -10.71140 -10.71007 -10.70945
 Alpha  occ. eigenvalues --  -10.70809 -10.70749 -10.70617 -10.69535 -10.68995
 Alpha  occ. eigenvalues --   -1.19989  -1.13674  -1.13070  -1.07946  -1.07138
 Alpha  occ. eigenvalues --   -1.05389  -1.02854  -0.99847  -0.97573  -0.94560
 Alpha  occ. eigenvalues --   -0.90354  -0.87047  -0.85561  -0.82766  -0.82689
 Alpha  occ. eigenvalues --   -0.79213  -0.76182  -0.73828  -0.73371  -0.72528
 Alpha  occ. eigenvalues --   -0.72169  -0.68381  -0.67635  -0.66695  -0.66206
 Alpha  occ. eigenvalues --   -0.65265  -0.64182  -0.62913  -0.62146  -0.61520
 Alpha  occ. eigenvalues --   -0.60539  -0.60004  -0.59359  -0.58139  -0.56415
 Alpha  occ. eigenvalues --   -0.54609  -0.53484  -0.52815  -0.52494  -0.50458
 Alpha  occ. eigenvalues --   -0.49082  -0.47894  -0.44448  -0.41850  -0.38392
 Alpha virt. eigenvalues --   -0.22133  -0.16122  -0.11376  -0.10122  -0.08367
 Alpha virt. eigenvalues --   -0.07326  -0.01988   0.00209   0.00869   0.01234
 Alpha virt. eigenvalues --    0.02704   0.03312   0.03933   0.04983   0.05253
 Alpha virt. eigenvalues --    0.06140   0.07895   0.08868   0.09132   0.09567
 Alpha virt. eigenvalues --    0.10210   0.10862   0.12549   0.13206   0.14848
 Alpha virt. eigenvalues --    0.16306   0.18241   0.19816   0.21116   0.22033
 Alpha virt. eigenvalues --    0.23463   0.25078   0.26126   0.28595   0.30759
 Alpha virt. eigenvalues --    0.31784   0.34244   0.35832   0.36223   0.37255
 Alpha virt. eigenvalues --    0.38374   0.39711   0.40393   0.41138   0.42247
 Alpha virt. eigenvalues --    0.43499   0.43669   0.45174   0.46064   0.46549
 Alpha virt. eigenvalues --    0.47225   0.47981   0.48771   0.49541   0.50402
 Alpha virt. eigenvalues --    0.51334   0.52297   0.52654   0.53073   0.53561
 Alpha virt. eigenvalues --    0.54351   0.54973   0.55421   0.55928   0.57286
 Alpha virt. eigenvalues --    0.57881   0.58128   0.59066   0.59666   0.60738
 Alpha virt. eigenvalues --    0.61310   0.63062   0.63399   0.65344   0.65646
 Alpha virt. eigenvalues --    0.67199   0.67724   0.68879   0.70611   0.72255
 Alpha virt. eigenvalues --    0.74563   0.76810   0.76984   0.77958   0.78723
 Alpha virt. eigenvalues --    0.78975   0.79265   0.80581   0.80807   0.81631
 Alpha virt. eigenvalues --    0.82795   0.83820   0.84542   0.85400   0.85562
 Alpha virt. eigenvalues --    0.87567   0.88102   0.89597   0.90847   0.91018
 Alpha virt. eigenvalues --    0.93052   0.94014   0.95869   0.97820   0.98502
 Alpha virt. eigenvalues --    1.00651   1.01476   1.02247   1.04484   1.04977
 Alpha virt. eigenvalues --    1.06968   1.08624   1.09997   1.10650   1.11991
 Alpha virt. eigenvalues --    1.15290   1.16859   1.18863   1.20396   1.21624
 Alpha virt. eigenvalues --    1.24029   1.25267   1.26334   1.26887   1.30041
 Alpha virt. eigenvalues --    1.33499   1.36539   1.38100   1.43509   1.45091
 Alpha virt. eigenvalues --    1.53218   1.56201   1.58333   1.66705   1.93146
  Beta  occ. eigenvalues --  -10.74679 -10.74131 -10.73596 -10.73544 -10.72878
  Beta  occ. eigenvalues --  -10.72293 -10.72019 -10.72004 -10.71969 -10.71836
  Beta  occ. eigenvalues --  -10.71432 -10.71378 -10.71184 -10.71018 -10.70928
  Beta  occ. eigenvalues --  -10.70833 -10.70781 -10.70635 -10.69525 -10.69003
  Beta  occ. eigenvalues --   -1.19656  -1.13508  -1.12747  -1.07818  -1.06850
  Beta  occ. eigenvalues --   -1.05174  -1.02702  -0.99745  -0.97447  -0.93803
  Beta  occ. eigenvalues --   -0.90060  -0.86715  -0.85373  -0.82500  -0.82397
  Beta  occ. eigenvalues --   -0.79120  -0.76036  -0.73525  -0.73120  -0.72296
  Beta  occ. eigenvalues --   -0.71973  -0.68186  -0.67484  -0.66323  -0.65549
  Beta  occ. eigenvalues --   -0.64956  -0.64030  -0.62600  -0.61873  -0.61379
  Beta  occ. eigenvalues --   -0.60224  -0.59420  -0.58839  -0.57553  -0.56158
  Beta  occ. eigenvalues --   -0.54335  -0.53059  -0.52357  -0.51662  -0.49963
  Beta  occ. eigenvalues --   -0.48022  -0.47253  -0.44151  -0.41362
  Beta virt. eigenvalues --   -0.26422  -0.20328  -0.14914  -0.10408  -0.09381
  Beta virt. eigenvalues --   -0.07325  -0.06891  -0.01535   0.00726   0.01183
  Beta virt. eigenvalues --    0.01495   0.02882   0.03480   0.04154   0.05079
  Beta virt. eigenvalues --    0.05333   0.06300   0.08053   0.09071   0.09361
  Beta virt. eigenvalues --    0.09771   0.10486   0.11014   0.12748   0.13389
  Beta virt. eigenvalues --    0.15177   0.16487   0.18520   0.20061   0.21247
  Beta virt. eigenvalues --    0.22236   0.23588   0.25230   0.26405   0.28741
  Beta virt. eigenvalues --    0.31073   0.31943   0.34515   0.36014   0.36391
  Beta virt. eigenvalues --    0.37468   0.38893   0.39942   0.40618   0.41501
  Beta virt. eigenvalues --    0.42532   0.43713   0.43990   0.45410   0.46366
  Beta virt. eigenvalues --    0.47026   0.47479   0.48163   0.48951   0.49878
  Beta virt. eigenvalues --    0.50777   0.51720   0.52506   0.52993   0.53187
  Beta virt. eigenvalues --    0.54056   0.54644   0.55226   0.55592   0.56190
  Beta virt. eigenvalues --    0.57798   0.58209   0.58437   0.59545   0.59900
  Beta virt. eigenvalues --    0.60810   0.61636   0.63374   0.63695   0.65783
  Beta virt. eigenvalues --    0.66003   0.67355   0.68190   0.69197   0.70769
  Beta virt. eigenvalues --    0.72475   0.74791   0.77036   0.77242   0.78102
  Beta virt. eigenvalues --    0.78855   0.79182   0.79531   0.80717   0.81003
  Beta virt. eigenvalues --    0.82019   0.83051   0.83990   0.84842   0.85569
  Beta virt. eigenvalues --    0.85703   0.87800   0.88278   0.89567   0.91093
  Beta virt. eigenvalues --    0.91346   0.93388   0.94468   0.96044   0.98089
  Beta virt. eigenvalues --    0.98781   1.01046   1.01812   1.02421   1.04740
  Beta virt. eigenvalues --    1.05201   1.07392   1.08933   1.10179   1.10820
  Beta virt. eigenvalues --    1.12053   1.15480   1.17093   1.19063   1.20571
  Beta virt. eigenvalues --    1.21849   1.24163   1.25481   1.26414   1.26975
  Beta virt. eigenvalues --    1.30234   1.33673   1.36890   1.38251   1.43774
  Beta virt. eigenvalues --    1.45194   1.53398   1.56399   1.58510   1.66923
  Beta virt. eigenvalues --    1.93424
          Condensed to atoms (all electrons):
               1          2          3          4          5          6
     1  C    5.420047   0.369612  -0.101397  -0.056213   0.308176   0.425456
     2  C    0.369612   5.397190   0.164186  -0.066958  -0.062504  -0.049468
     3  C   -0.101397   0.164186   5.499094   0.318558  -0.073730   0.010358
     4  C   -0.056213  -0.066958   0.318558   5.416341   0.375615   0.007214
     5  C    0.308176  -0.062504  -0.073730   0.375615   5.287876  -0.047159
     6  C    0.425456  -0.049468   0.010358   0.007214  -0.047159   4.947543
     7  C   -0.055457  -0.040248   0.001091  -0.000173   0.007701   0.451597
     8  C   -0.041796  -0.065665   0.014268  -0.000390   0.000027  -0.043789
     9  C   -0.049035   0.506327  -0.074315   0.001927   0.006027  -0.023534
    10  C    0.007002  -0.038844  -0.049805   0.000712  -0.000188   0.000177
    11  C   -0.000098  -0.039101  -0.038003   0.006114  -0.000449  -0.000004
    12  C    0.006700  -0.081150   0.431928  -0.017778   0.009059   0.000102
    13  C   -0.000235   0.011646  -0.069017  -0.049256   0.000726   0.000002
    14  C   -0.000554  -0.001405  -0.042833  -0.011029   0.011076  -0.000006
    15  C    0.018062   0.018872  -0.067921   0.341858  -0.045991  -0.000447
    16  C    0.001169  -0.000286   0.015579  -0.050699  -0.054271   0.000243
    17  C    0.024761  -0.001049   0.000278  -0.056138  -0.027337  -0.000340
    18  C   -0.085195   0.009181   0.007795  -0.026272   0.386990  -0.038565
    19  C   -0.042096  -0.000287  -0.000241   0.006111  -0.027898  -0.026912
    20  C   -0.051746   0.005501  -0.000055  -0.000098  -0.045776   0.406335
    21  H    0.004856   0.000330  -0.000002   0.000006  -0.000239  -0.031769
    22  H    0.000777   0.005219  -0.000377  -0.000006   0.000003   0.003651
    23  H   -0.000095   0.003810   0.000272   0.000003  -0.000001  -0.000004
    24  H    0.000005   0.000018   0.003868  -0.000086   0.000005   0.000000
    25  H    0.000002  -0.000187   0.004681   0.000305  -0.000000   0.000000
    26  H    0.000003  -0.000007   0.000354   0.004164  -0.000108  -0.000000
    27  H   -0.000023   0.000008  -0.000238   0.005243   0.000874  -0.000001
    28  H   -0.000440   0.000005   0.000001   0.001303   0.004202   0.000021
    29  H    0.000343   0.000005   0.000000  -0.000079   0.003971   0.003099
    30  H    0.003790  -0.000078   0.000001   0.000006   0.000740  -0.030465
               7          8          9         10         11         12
     1  C   -0.055457  -0.041796  -0.049035   0.007002  -0.000098   0.006700
     2  C   -0.040248  -0.065665   0.506327  -0.038844  -0.039101  -0.081150
     3  C    0.001091   0.014268  -0.074315  -0.049805  -0.038003   0.431928
     4  C   -0.000173  -0.000390   0.001927   0.000712   0.006114  -0.017778
     5  C    0.007701   0.000027   0.006027  -0.000188  -0.000449   0.009059
     6  C    0.451597  -0.043789  -0.023534   0.000177  -0.000004   0.000102
     7  C    5.003527   0.527231  -0.039238   0.002153  -0.000028   0.000030
     8  C    0.527231   5.020650   0.409180  -0.014661   0.004252   0.001463
     9  C   -0.039238   0.409180   4.926658   0.407937  -0.054077  -0.026666
    10  C    0.002153  -0.014661   0.407937   4.886478   0.626148  -0.056265
    11  C   -0.000028   0.004252  -0.054077   0.626148   4.897088   0.406404
    12  C    0.000030   0.001463  -0.026666  -0.056265   0.406404   5.053120
    13  C   -0.000002   0.000006   0.001392   0.005186  -0.020778   0.391924
    14  C   -0.000000   0.000002   0.000094  -0.000231   0.002467  -0.017068
    15  C    0.000002  -0.000008  -0.000464   0.000097   0.000904  -0.058322
    16  C   -0.000004  -0.000002  -0.000000   0.000004   0.000024  -0.002814
    17  C    0.000039   0.000011  -0.000022  -0.000001  -0.000001   0.000112
    18  C    0.000947   0.000102  -0.000265   0.000001   0.000004   0.000004
    19  C    0.003087  -0.000224   0.000057   0.000000   0.000000  -0.000006
    20  C   -0.027455   0.003771  -0.000161   0.000003  -0.000000   0.000004
    21  H    0.364063  -0.026133   0.003150  -0.000042   0.000001   0.000000
    22  H   -0.029638   0.361114  -0.031933  -0.001953   0.000036   0.000007
    23  H   -0.000031  -0.003044  -0.024442   0.354627  -0.031227   0.004518
    24  H    0.000001  -0.000078   0.003941  -0.026275   0.356533  -0.027289
    25  H    0.000000  -0.000000  -0.000003   0.000152  -0.002635  -0.035540
    26  H    0.000000  -0.000000   0.000000   0.000001  -0.000077   0.004423
    27  H   -0.000000   0.000000   0.000000  -0.000000  -0.000000   0.000021
    28  H    0.000000  -0.000000   0.000000   0.000000  -0.000000   0.000000
    29  H   -0.000082   0.000000   0.000000   0.000000   0.000000  -0.000000
    30  H   -0.002215   0.000002   0.000005  -0.000000  -0.000000  -0.000000
              13         14         15         16         17         18
     1  C   -0.000235  -0.000554   0.018062   0.001169   0.024761  -0.085195
     2  C    0.011646  -0.001405   0.018872  -0.000286  -0.001049   0.009181
     3  C   -0.069017  -0.042833  -0.067921   0.015579   0.000278   0.007795
     4  C   -0.049256  -0.011029   0.341858  -0.050699  -0.056138  -0.026272
     5  C    0.000726   0.011076  -0.045991  -0.054271  -0.027337   0.386990
     6  C    0.000002  -0.000006  -0.000447   0.000243  -0.000340  -0.038565
     7  C   -0.000002  -0.000000   0.000002  -0.000004   0.000039   0.000947
     8  C    0.000006   0.000002  -0.000008  -0.000002   0.000011   0.000102
     9  C    0.001392   0.000094  -0.000464  -0.000000  -0.000022  -0.000265
    10  C    0.005186  -0.000231   0.000097   0.000004  -0.000001   0.000001
    11  C   -0.020778   0.002467   0.000904   0.000024  -0.000001   0.000004
    12  C    0.391924  -0.017068  -0.058322  -0.002814   0.000112   0.000004
    13  C    4.985115   0.548199  -0.032059   0.006246  -0.000135  -0.000067
    14  C    0.548199   5.013712   0.351934  -0.080266   0.003623   0.000067
    15  C   -0.032059   0.351934   4.885621   0.488049  -0.017542  -0.019775
    16  C    0.006246  -0.080266   0.488049   5.221844   0.384158  -0.036284
    17  C   -0.000135   0.003623  -0.017542   0.384158   5.199022   0.464419
    18  C   -0.000067   0.000067  -0.019775  -0.036284   0.464419   4.827378
    19  C   -0.000001   0.000003  -0.000234   0.003564  -0.075389   0.405118
    20  C   -0.000000   0.000000  -0.000042  -0.000180   0.006393  -0.034880
    21  H   -0.000000   0.000000  -0.000000  -0.000000  -0.000000  -0.000029
    22  H    0.000000   0.000000  -0.000000   0.000000  -0.000000   0.000000
    23  H   -0.000110   0.000002   0.000001   0.000000   0.000000  -0.000000
    24  H   -0.003355   0.000061  -0.000039  -0.000000  -0.000000   0.000000
    25  H    0.368006  -0.019674   0.003084  -0.000104   0.000001   0.000000
    26  H   -0.027374   0.359069  -0.033551  -0.001103  -0.000008   0.000003
    27  H    0.000028  -0.000540  -0.033058   0.355357  -0.023279   0.002016
    28  H    0.000001  -0.000077   0.001537  -0.021897   0.357014  -0.033423
    29  H   -0.000000  -0.000000   0.000011  -0.000035  -0.002507  -0.033298
    30  H    0.000000   0.000000  -0.000000   0.000001  -0.000180   0.003239
              19         20         21         22         23         24
     1  C   -0.042096  -0.051746   0.004856   0.000777  -0.000095   0.000005
     2  C   -0.000287   0.005501   0.000330   0.005219   0.003810   0.000018
     3  C   -0.000241  -0.000055  -0.000002  -0.000377   0.000272   0.003868
     4  C    0.006111  -0.000098   0.000006  -0.000006   0.000003  -0.000086
     5  C   -0.027898  -0.045776  -0.000239   0.000003  -0.000001   0.000005
     6  C   -0.026912   0.406335  -0.031769   0.003651  -0.000004   0.000000
     7  C    0.003087  -0.027455   0.364063  -0.029638  -0.000031   0.000001
     8  C   -0.000224   0.003771  -0.026133   0.361114  -0.003044  -0.000078
     9  C    0.000057  -0.000161   0.003150  -0.031933  -0.024442   0.003941
    10  C    0.000000   0.000003  -0.000042  -0.001953   0.354627  -0.026275
    11  C    0.000000  -0.000000   0.000001   0.000036  -0.031227   0.356533
    12  C   -0.000006   0.000004   0.000000   0.000007   0.004518  -0.027289
    13  C   -0.000001  -0.000000  -0.000000   0.000000  -0.000110  -0.003355
    14  C    0.000003   0.000000   0.000000   0.000000   0.000002   0.000061
    15  C   -0.000234  -0.000042  -0.000000  -0.000000   0.000001  -0.000039
    16  C    0.003564  -0.000180  -0.000000   0.000000   0.000000  -0.000000
    17  C   -0.075389   0.006393  -0.000000  -0.000000   0.000000  -0.000000
    18  C    0.405118  -0.034880  -0.000029   0.000000  -0.000000   0.000000
    19  C    4.942399   0.551252   0.000063   0.000001   0.000000  -0.000000
    20  C    0.551252   4.961679  -0.001960  -0.000084  -0.000000   0.000000
    21  H    0.000063  -0.001960   0.473013  -0.003590   0.000000  -0.000000
    22  H    0.000001  -0.000084  -0.003590   0.484347   0.001641  -0.000003
    23  H    0.000000  -0.000000   0.000000   0.001641   0.477424  -0.004727
    24  H   -0.000000   0.000000  -0.000000  -0.000003  -0.004727   0.469292
    25  H    0.000000   0.000000  -0.000000  -0.000000  -0.000002   0.001648
    26  H   -0.000000  -0.000000  -0.000000  -0.000000  -0.000000   0.000002
    27  H   -0.000068   0.000002   0.000000  -0.000000  -0.000000   0.000000
    28  H   -0.000090   0.000084   0.000000  -0.000000  -0.000000   0.000000
    29  H    0.363419  -0.021780   0.000000  -0.000000  -0.000000  -0.000000
    30  H   -0.023685   0.364827   0.001805  -0.000001   0.000000  -0.000000
              25         26         27         28         29         30
     1  C    0.000002   0.000003  -0.000023  -0.000440   0.000343   0.003790
     2  C   -0.000187  -0.000007   0.000008   0.000005   0.000005  -0.000078
     3  C    0.004681   0.000354  -0.000238   0.000001   0.000000   0.000001
     4  C    0.000305   0.004164   0.005243   0.001303  -0.000079   0.000006
     5  C   -0.000000  -0.000108   0.000874   0.004202   0.003971   0.000740
     6  C    0.000000  -0.000000  -0.000001   0.000021   0.003099  -0.030465
     7  C    0.000000   0.000000  -0.000000   0.000000  -0.000082  -0.002215
     8  C   -0.000000  -0.000000   0.000000  -0.000000   0.000000   0.000002
     9  C   -0.000003   0.000000   0.000000   0.000000   0.000000   0.000005
    10  C    0.000152   0.000001  -0.000000   0.000000   0.000000  -0.000000
    11  C   -0.002635  -0.000077  -0.000000  -0.000000   0.000000  -0.000000
    12  C   -0.035540   0.004423   0.000021   0.000000  -0.000000  -0.000000
    13  C    0.368006  -0.027374   0.000028   0.000001  -0.000000   0.000000
    14  C   -0.019674   0.359069  -0.000540  -0.000077  -0.000000   0.000000
    15  C    0.003084  -0.033551  -0.033058   0.001537   0.000011  -0.000000
    16  C   -0.000104  -0.001103   0.355357  -0.021897  -0.000035   0.000001
    17  C    0.000001  -0.000008  -0.023279   0.357014  -0.002507  -0.000180
    18  C    0.000000   0.000003   0.002016  -0.033423  -0.033298   0.003239
    19  C    0.000000  -0.000000  -0.000068  -0.000090   0.363419  -0.023685
    20  C    0.000000  -0.000000   0.000002   0.000084  -0.021780   0.364827
    21  H   -0.000000  -0.000000   0.000000   0.000000   0.000000   0.001805
    22  H   -0.000000  -0.000000  -0.000000  -0.000000  -0.000000  -0.000001
    23  H   -0.000002  -0.000000  -0.000000  -0.000000  -0.000000   0.000000
    24  H    0.001648   0.000002   0.000000   0.000000  -0.000000  -0.000000
    25  H    0.470726  -0.002905  -0.000003  -0.000000  -0.000000  -0.000000
    26  H   -0.002905   0.469866   0.002031   0.000001   0.000000  -0.000000
    27  H   -0.000003   0.002031   0.476202  -0.000496   0.000000  -0.000000
    28  H   -0.000000   0.000001  -0.000496   0.480596   0.002255  -0.000002
    29  H   -0.000000   0.000000   0.000000   0.002255   0.455694  -0.002560
    30  H   -0.000000  -0.000000  -0.000000  -0.000002  -0.002560   0.469105
          Atomic-Atomic Spin Densities.
               1          2          3          4          5          6
     1  C   -0.015115   0.018303   0.005548  -0.015757  -0.045362   0.038774
     2  C    0.018303   0.123574   0.022394  -0.022330  -0.007357   0.002423
     3  C    0.005548   0.022394  -0.047626  -0.050677  -0.005285   0.000855
     4  C   -0.015757  -0.022330  -0.050677   0.388165   0.047755  -0.002090
     5  C   -0.045362  -0.007357  -0.005285   0.047755   0.111793  -0.017676
     6  C    0.038774   0.002423   0.000855  -0.002090  -0.017676   0.200308
     7  C   -0.001705  -0.001460  -0.000077   0.000244   0.002175  -0.015344
     8  C   -0.001868  -0.010808  -0.000555   0.000361   0.000728  -0.011375
     9  C   -0.001366  -0.011962   0.003321   0.002334   0.001401  -0.001782
    10  C   -0.000135  -0.001965   0.000852   0.000068   0.000012   0.000018
    11  C   -0.000071  -0.000319  -0.002085   0.001747   0.000026  -0.000001
    12  C    0.000757   0.000125   0.015763  -0.013193  -0.000430   0.000066
    13  C    0.000057   0.000255   0.005062  -0.006550  -0.000082   0.000002
    14  C   -0.000050  -0.000205  -0.001497   0.005033   0.000165  -0.000003
    15  C   -0.000335   0.000754   0.002840   0.001005   0.001179  -0.000019
    16  C    0.000693   0.000221   0.001453  -0.022726  -0.006306   0.000091
    17  C    0.001007   0.000025   0.000114  -0.005892  -0.008271   0.000463
    18  C    0.001719   0.000315   0.000076   0.000446   0.011347  -0.000739
    19  C   -0.001722  -0.000041  -0.000003   0.000351   0.003449  -0.006282
    20  C    0.001483  -0.000004   0.000003  -0.000046  -0.002245   0.001030
    21  H   -0.000024   0.000037   0.000002  -0.000003  -0.000043  -0.000001
    22  H    0.000028   0.000031   0.000019  -0.000001  -0.000003   0.000007
    23  H    0.000002   0.000007   0.000053   0.000002   0.000000  -0.000001
    24  H    0.000001   0.000011  -0.000045  -0.000048  -0.000000   0.000000
    25  H    0.000000   0.000003   0.000013  -0.000082  -0.000000   0.000000
    26  H   -0.000000  -0.000001  -0.000015   0.000127   0.000002  -0.000000
    27  H    0.000002   0.000000   0.000015   0.000040  -0.000039   0.000000
    28  H    0.000002  -0.000000  -0.000000  -0.000005   0.000029  -0.000001
    29  H    0.000005   0.000000   0.000000   0.000001  -0.000025  -0.000008
    30  H   -0.000033   0.000000   0.000000  -0.000001  -0.000033  -0.000405
               7          8          9         10         11         12
     1  C   -0.001705  -0.001868  -0.001366  -0.000135  -0.000071   0.000757
     2  C   -0.001460  -0.010808  -0.011962  -0.001965  -0.000319   0.000125
     3  C   -0.000077  -0.000555   0.003321   0.000852  -0.002085   0.015763
     4  C    0.000244   0.000361   0.002334   0.000068   0.001747  -0.013193
     5  C    0.002175   0.000728   0.001401   0.000012   0.000026  -0.000430
     6  C   -0.015344  -0.011375  -0.001782   0.000018  -0.000001   0.000066
     7  C   -0.101428   0.010456   0.002302  -0.000026   0.000001  -0.000016
     8  C    0.010456   0.245068   0.006506   0.000787  -0.000007  -0.000060
     9  C    0.002302   0.006506  -0.067776   0.002041   0.001771  -0.001041
    10  C   -0.000026   0.000787   0.002041   0.021579  -0.000342  -0.002575
    11  C    0.000001  -0.000007   0.001771  -0.000342  -0.013670  -0.000694
    12  C   -0.000016  -0.000060  -0.001041  -0.002575  -0.000694   0.076950
    13  C   -0.000000  -0.000002  -0.000083  -0.000148  -0.000940  -0.000516
    14  C    0.000000   0.000001  -0.000002   0.000010   0.000161  -0.001204
    15  C   -0.000000  -0.000000   0.000034  -0.000004  -0.000093  -0.000594
    16  C   -0.000002  -0.000002  -0.000009  -0.000001  -0.000007   0.000170
    17  C   -0.000013  -0.000003  -0.000005  -0.000000  -0.000000   0.000017
    18  C   -0.000088  -0.000009   0.000006   0.000000  -0.000000  -0.000006
    19  C    0.000323   0.000037   0.000006  -0.000000   0.000000  -0.000001
    20  C    0.001386  -0.000131   0.000003   0.000000  -0.000000   0.000000
    21  H    0.000993  -0.001144  -0.000105  -0.000001   0.000000   0.000000
    22  H    0.000681  -0.001769   0.000835  -0.000043   0.000004  -0.000001
    23  H    0.000000   0.000006   0.000289  -0.000248   0.000197  -0.000041
    24  H   -0.000000  -0.000002  -0.000014  -0.000682   0.000245  -0.000141
    25  H   -0.000000  -0.000000   0.000001  -0.000004  -0.000119  -0.000562
    26  H    0.000000   0.000000   0.000000   0.000000   0.000002   0.000013
    27  H   -0.000000  -0.000000  -0.000000   0.000000  -0.000000  -0.000000
    28  H    0.000000   0.000000   0.000000   0.000000   0.000000  -0.000000
    29  H    0.000001   0.000000   0.000000  -0.000000  -0.000000  -0.000000
    30  H   -0.000078  -0.000006  -0.000001   0.000000  -0.000000   0.000000
              13         14         15         16         17         18
     1  C    0.000057  -0.000050  -0.000335   0.000693   0.001007   0.001719
     2  C    0.000255  -0.000205   0.000754   0.000221   0.000025   0.000315
     3  C    0.005062  -0.001497   0.002840   0.001453   0.000114   0.000076
     4  C   -0.006550   0.005033   0.001005  -0.022726  -0.005892   0.000446
     5  C   -0.000082   0.000165   0.001179  -0.006306  -0.008271   0.011347
     6  C    0.000002  -0.000003  -0.000019   0.000091   0.000463  -0.000739
     7  C   -0.000000   0.000000  -0.000000  -0.000002  -0.000013  -0.000088
     8  C   -0.000002   0.000001  -0.000000  -0.000002  -0.000003  -0.000009
     9  C   -0.000083  -0.000002   0.000034  -0.000009  -0.000005   0.000006
    10  C   -0.000148   0.000010  -0.000004  -0.000001  -0.000000   0.000000
    11  C   -0.000940   0.000161  -0.000093  -0.000007  -0.000000  -0.000000
    12  C   -0.000516  -0.001204  -0.000594   0.000170   0.000017  -0.000006
    13  C   -0.033149  -0.003801   0.003070   0.000494   0.000011   0.000005
    14  C   -0.003801   0.036399   0.007740  -0.003453  -0.000126   0.000000
    15  C    0.003070   0.007740  -0.065978  -0.017017  -0.001224  -0.000388
    16  C    0.000494  -0.003453  -0.017017   0.228890   0.033291  -0.001400
    17  C    0.000011  -0.000126  -0.001224   0.033291   0.119851  -0.020101
    18  C    0.000005   0.000000  -0.000388  -0.001400  -0.020101  -0.047194
    19  C   -0.000000  -0.000000   0.000019  -0.000221  -0.004788   0.011905
    20  C    0.000000  -0.000000  -0.000002   0.000013   0.000197   0.001949
    21  H    0.000000  -0.000000  -0.000000   0.000000   0.000000   0.000001
    22  H   -0.000000  -0.000000   0.000000   0.000000   0.000000  -0.000000
    23  H   -0.000002  -0.000000  -0.000000  -0.000000  -0.000000  -0.000000
    24  H    0.000199  -0.000009   0.000003   0.000000   0.000000   0.000000
    25  H    0.000971  -0.000208   0.000005   0.000006   0.000000   0.000000
    26  H    0.000083  -0.000365   0.000288  -0.000162  -0.000001  -0.000000
    27  H    0.000001  -0.000153   0.000030  -0.000612   0.000441   0.000002
    28  H   -0.000000   0.000001   0.000035  -0.000006  -0.000503   0.000419
    29  H   -0.000000  -0.000000  -0.000000  -0.000000  -0.000056   0.000473
    30  H    0.000000  -0.000000  -0.000000   0.000000   0.000002  -0.000032
              19         20         21         22         23         24
     1  C   -0.001722   0.001483  -0.000024   0.000028   0.000002   0.000001
     2  C   -0.000041  -0.000004   0.000037   0.000031   0.000007   0.000011
     3  C   -0.000003   0.000003   0.000002   0.000019   0.000053  -0.000045
     4  C    0.000351  -0.000046  -0.000003  -0.000001   0.000002  -0.000048
     5  C    0.003449  -0.002245  -0.000043  -0.000003   0.000000  -0.000000
     6  C   -0.006282   0.001030  -0.000001   0.000007  -0.000001   0.000000
     7  C    0.000323   0.001386   0.000993   0.000681   0.000000  -0.000000
     8  C    0.000037  -0.000131  -0.001144  -0.001769   0.000006  -0.000002
     9  C    0.000006   0.000003  -0.000105   0.000835   0.000289  -0.000014
    10  C   -0.000000   0.000000  -0.000001  -0.000043  -0.000248  -0.000682
    11  C    0.000000  -0.000000   0.000000   0.000004   0.000197   0.000245
    12  C   -0.000001   0.000000   0.000000  -0.000001  -0.000041  -0.000141
    13  C   -0.000000   0.000000   0.000000  -0.000000  -0.000002   0.000199
    14  C   -0.000000  -0.000000  -0.000000  -0.000000  -0.000000  -0.000009
    15  C    0.000019  -0.000002  -0.000000   0.000000  -0.000000   0.000003
    16  C   -0.000221   0.000013   0.000000   0.000000  -0.000000   0.000000
    17  C   -0.004788   0.000197   0.000000   0.000000  -0.000000   0.000000
    18  C    0.011905   0.001949   0.000001  -0.000000  -0.000000   0.000000
    19  C    0.092757  -0.002025  -0.000020  -0.000000   0.000000  -0.000000
    20  C   -0.002025  -0.069038   0.000132   0.000002  -0.000000   0.000000
    21  H   -0.000020   0.000132   0.005394   0.000025  -0.000000   0.000000
    22  H   -0.000000   0.000002   0.000025  -0.012138  -0.000041   0.000000
    23  H    0.000000  -0.000000  -0.000000  -0.000041  -0.001476  -0.000001
    24  H   -0.000000   0.000000   0.000000   0.000000  -0.000001   0.002407
    25  H   -0.000000   0.000000   0.000000   0.000000   0.000000   0.000038
    26  H    0.000000  -0.000000  -0.000000  -0.000000   0.000000  -0.000000
    27  H    0.000001  -0.000000   0.000000   0.000000  -0.000000   0.000000
    28  H   -0.000033  -0.000008  -0.000000   0.000000   0.000000  -0.000000
    29  H   -0.000743   0.000170   0.000000   0.000000   0.000000  -0.000000
    30  H   -0.000420   0.001144   0.000039   0.000000  -0.000000   0.000000
              25         26         27         28         29         30
     1  C    0.000000  -0.000000   0.000002   0.000002   0.000005  -0.000033
     2  C    0.000003  -0.000001   0.000000  -0.000000   0.000000   0.000000
     3  C    0.000013  -0.000015   0.000015  -0.000000   0.000000   0.000000
     4  C   -0.000082   0.000127   0.000040  -0.000005   0.000001  -0.000001
     5  C   -0.000000   0.000002  -0.000039   0.000029  -0.000025  -0.000033
     6  C    0.000000  -0.000000   0.000000  -0.000001  -0.000008  -0.000405
     7  C   -0.000000   0.000000  -0.000000   0.000000   0.000001  -0.000078
     8  C   -0.000000   0.000000  -0.000000   0.000000   0.000000  -0.000006
     9  C    0.000001   0.000000  -0.000000   0.000000   0.000000  -0.000001
    10  C   -0.000004   0.000000   0.000000   0.000000  -0.000000   0.000000
    11  C   -0.000119   0.000002  -0.000000   0.000000  -0.000000  -0.000000
    12  C   -0.000562   0.000013  -0.000000  -0.000000  -0.000000   0.000000
    13  C    0.000971   0.000083   0.000001  -0.000000  -0.000000   0.000000
    14  C   -0.000208  -0.000365  -0.000153   0.000001  -0.000000  -0.000000
    15  C    0.000005   0.000288   0.000030   0.000035  -0.000000  -0.000000
    16  C    0.000006  -0.000162  -0.000612  -0.000006  -0.000000   0.000000
    17  C    0.000000  -0.000001   0.000441  -0.000503  -0.000056   0.000002
    18  C    0.000000  -0.000000   0.000002   0.000419   0.000473  -0.000032
    19  C   -0.000000   0.000000   0.000001  -0.000033  -0.000743  -0.000420
    20  C    0.000000  -0.000000  -0.000000  -0.000008   0.000170   0.001144
    21  H    0.000000  -0.000000   0.000000  -0.000000   0.000000   0.000039
    22  H    0.000000  -0.000000   0.000000   0.000000   0.000000   0.000000
    23  H    0.000000   0.000000  -0.000000   0.000000   0.000000  -0.000000
    24  H    0.000038  -0.000000   0.000000  -0.000000  -0.000000   0.000000
    25  H    0.001458  -0.000023   0.000000  -0.000000  -0.000000   0.000000
    26  H   -0.000023  -0.002083  -0.000054  -0.000000  -0.000000  -0.000000
    27  H    0.000000  -0.000054  -0.011040  -0.000154  -0.000000   0.000000
    28  H   -0.000000  -0.000000  -0.000154  -0.006867  -0.000028  -0.000000
    29  H   -0.000000  -0.000000  -0.000000  -0.000028  -0.004456   0.000017
    30  H    0.000000  -0.000000   0.000000  -0.000000   0.000017   0.002443
 Mulliken charges and spin densities:
               1          2
     1  C   -0.106381  -0.015164
     2  C   -0.044674   0.112029
     3  C    0.045623  -0.049483
     4  C   -0.150305   0.308279
     5  C   -0.017418   0.086901
     6  C    0.036667   0.188309
     7  C   -0.166900  -0.101676
     8  C   -0.146289   0.236209
     9  C    0.057460  -0.063296
    10  C   -0.102414   0.019195
    11  C   -0.113495  -0.014194
    12  C    0.013079   0.072784
    13  C   -0.116088  -0.035065
    14  C   -0.116626   0.038435
    15  C    0.199421  -0.068653
    16  C   -0.228296   0.213396
    17  C   -0.235901   0.114437
    18  C    0.200786  -0.041296
    19  C   -0.077943   0.092552
    20  C   -0.115633  -0.065987
    21  H    0.216478   0.005282
    22  H    0.210787  -0.012362
    23  H    0.221385  -0.001253
    24  H    0.226478   0.001963
    25  H    0.212449   0.001496
    26  H    0.225216  -0.002189
    27  H    0.215923  -0.011519
    28  H    0.209404  -0.007117
    29  H    0.231545  -0.004650
    30  H    0.215665   0.002638
 Sum of Mulliken charges =   1.00000   1.00000
 Mulliken charges and spin densities with hydrogens summed into heavy atoms:
               1          2
     1  C   -0.106381  -0.015164
     2  C   -0.044674   0.112029
     3  C    0.045623  -0.049483
     4  C   -0.150305   0.308279
     5  C   -0.017418   0.086901
     6  C    0.036667   0.188309
     7  C    0.049578  -0.096394
     8  C    0.064498   0.223847
     9  C    0.057460  -0.063296
    10  C    0.118971   0.017942
    11  C    0.112983  -0.012231
    12  C    0.013079   0.072784
    13  C    0.096360  -0.033570
    14  C    0.108589   0.036245
    15  C    0.199421  -0.068653
    16  C   -0.012374   0.201877
    17  C   -0.026498   0.107320
    18  C    0.200786  -0.041296
    19  C    0.153602   0.087901
    20  C    0.100032  -0.063349
 Electronic spatial extent (au):  <R**2>=           4023.5823
 Charge=              1.0000 electrons
 Dipole moment (field-independent basis, Debye):
    X=             -0.2378    Y=              0.7475    Z=             -2.8358  Tot=              2.9423
 Quadrupole moment (field-independent basis, Debye-Ang):
   XX=            -66.4097   YY=            -70.6864   ZZ=           -113.4326
   XY=             -1.0072   XZ=              0.5553   YZ=             -0.7618
 Traceless Quadrupole moment (field-independent basis, Debye-Ang):
   XX=             17.0999   YY=             12.8232   ZZ=            -29.9231
   XY=             -1.0072   XZ=              0.5553   YZ=             -0.7618
 Octapole moment (field-independent basis, Debye-Ang**2):
  XXX=             -3.3240  YYY=              7.4120  ZZZ=             -3.7056  XYY=              1.8948
  XXY=              1.0624  XXZ=            -33.2166  XZZ=             -0.5543  YZZ=              1.1012
  YYZ=            -38.4081  XYZ=              0.7839
 Hexadecapole moment (field-independent basis, Debye-Ang**3):
 XXXX=          -2236.0372 YYYY=          -1972.1322 ZZZZ=           -221.5580 XXXY=            -19.6807
 XXXZ=              3.6101 YYYX=             -2.9846 YYYZ=             -6.3951 ZZZX=              0.4741
 ZZZY=             -2.0697 XXYY=           -705.2931 XXZZ=           -539.5699 YYZZ=           -449.3908
 XXYZ=             -5.2236 YYXZ=              7.1082 ZZXY=             -4.2136
 N-N= 1.383250426547D+03 E-N=-4.526478321409D+03  KE= 7.645778292206D+02
                          Isotropic Fermi Contact Couplings
        Atom                 a.u.       MegaHertz       Gauss      10(-4) cm-1
     1  C(13)             -0.01141     -12.82598      -4.57663      -4.27829
     2  C(13)              0.01555      17.48118       6.23772       5.83109
     3  C(13)             -0.01488     -16.73027      -5.96978      -5.58062
     4  C(13)              0.04374      49.16920      17.54479      16.40108
     5  C(13)              0.00132       1.48692       0.53057       0.49598
     6  C(13)              0.02073      23.30261       8.31495       7.77291
     7  C(13)             -0.01944     -21.85449      -7.79823      -7.28987
     8  C(13)              0.02577      28.96566      10.33567       9.66190
     9  C(13)             -0.01577     -17.72666      -6.32531      -5.91298
    10  C(13)              0.00297       3.33847       1.19125       1.11359
    11  C(13)             -0.00294      -3.30008      -1.17755      -1.10079
    12  C(13)              0.01056      11.87070       4.23576       3.95964
    13  C(13)             -0.00524      -5.88630      -2.10038      -1.96346
    14  C(13)              0.00491       5.51506       1.96791       1.83963
    15  C(13)             -0.01524     -17.13745      -6.11507      -5.71644
    16  C(13)              0.01829      20.56316       7.33745       6.85913
    17  C(13)              0.00424       4.76609       1.70066       1.58980
    18  C(13)             -0.01164     -13.08640      -4.66955      -4.36515
    19  C(13)              0.00949      10.66730       3.80636       3.55823
    20  C(13)             -0.01224     -13.76458      -4.91154      -4.59137
    21  H(1)               0.00206       9.20693       3.28526       3.07110
    22  H(1)              -0.00416     -18.58038      -6.62994      -6.19775
    23  H(1)              -0.00041      -1.85449      -0.66173      -0.61859
    24  H(1)               0.00096       4.28770       1.52996       1.43022
    25  H(1)               0.00056       2.48563       0.88693       0.82912
    26  H(1)              -0.00082      -3.64398      -1.30026      -1.21550
    27  H(1)              -0.00369     -16.49985      -5.88756      -5.50376
    28  H(1)              -0.00218      -9.74691      -3.47794      -3.25122
    29  H(1)              -0.00168      -7.50985      -2.67970      -2.50502
    30  H(1)               0.00094       4.18073       1.49179       1.39454
 --------------------------------------------------------
       Center         ----  Spin Dipole Couplings  ----
                      3XX-RR        3YY-RR        3ZZ-RR
 --------------------------------------------------------
     1   Atom        0.001985     -0.002176      0.000191
     2   Atom       -0.058433     -0.008761      0.067194
     3   Atom        0.009022      0.013262     -0.022284
     4   Atom       -0.142388     -0.091630      0.234018
     5   Atom       -0.044097     -0.038305      0.082402
     6   Atom       -0.055250     -0.041116      0.096366
     7   Atom        0.038586      0.023582     -0.062168
     8   Atom       -0.114856     -0.054500      0.169356
     9   Atom        0.022866      0.004726     -0.027592
    10   Atom       -0.004611     -0.007173      0.011784
    11   Atom        0.006548      0.004458     -0.011005
    12   Atom        0.020416     -0.037966      0.017550
    13   Atom        0.013379      0.013142     -0.026521
    14   Atom       -0.013485     -0.013138      0.026623
    15   Atom        0.024256      0.015135     -0.039391
    16   Atom       -0.105839     -0.040031      0.145870
    17   Atom       -0.049196     -0.031533      0.080729
    18   Atom        0.015972      0.014831     -0.030803
    19   Atom       -0.029167     -0.045299      0.074466
    20   Atom        0.019961      0.025350     -0.045311
    21   Atom        0.002844     -0.000341     -0.002503
    22   Atom       -0.014723      0.015460     -0.000736
    23   Atom        0.000640      0.000898     -0.001538
    24   Atom        0.000863      0.000232     -0.001095
    25   Atom        0.000347      0.001280     -0.001627
    26   Atom        0.000646      0.001222     -0.001868
    27   Atom       -0.014011      0.014233     -0.000222
    28   Atom        0.003687     -0.002158     -0.001529
    29   Atom        0.006201     -0.004485     -0.001715
    30   Atom        0.001614      0.000378     -0.001992
 --------------------------------------------------------
                        XY            XZ            YZ
 --------------------------------------------------------
     1   Atom        0.000045     -0.009768      0.021667
     2   Atom       -0.011611      0.021067     -0.084908
     3   Atom       -0.000720     -0.007032      0.001430
     4   Atom       -0.019802     -0.049866      0.155493
     5   Atom       -0.001963     -0.006008      0.042784
     6   Atom        0.048332     -0.083884     -0.105189
     7   Atom       -0.006112      0.008089      0.040146
     8   Atom       -0.003599      0.002542     -0.116112
     9   Atom        0.005197     -0.007397      0.034518
    10   Atom       -0.002535      0.000832     -0.002775
    11   Atom       -0.000877     -0.004459      0.002462
    12   Atom       -0.007121      0.054176     -0.004264
    13   Atom       -0.000821     -0.012797     -0.005558
    14   Atom        0.005896      0.006316      0.010420
    15   Atom       -0.003872     -0.000746     -0.023415
    16   Atom       -0.004063     -0.016748      0.117424
    17   Atom       -0.018674     -0.032713      0.062546
    18   Atom        0.005308      0.009642     -0.008029
    19   Atom       -0.004188     -0.035527      0.009481
    20   Atom       -0.002377      0.019753      0.004519
    21   Atom       -0.003061     -0.000727      0.000269
    22   Atom       -0.006974     -0.002772      0.006905
    23   Atom       -0.001743     -0.000277      0.000441
    24   Atom       -0.001017     -0.000556      0.000500
    25   Atom        0.000874     -0.000078     -0.000738
    26   Atom        0.003858     -0.000991     -0.001244
    27   Atom        0.003933     -0.002429     -0.008923
[...]
 3,0.00010922,0.00033486,-0.00031013,0.00002565,-0.00017487,0.00008043,
 0.00000133,-0.00002220,-0.00017814,0.00001839,-0.00004331,-0.00011930,
 -0.00002136,-0.00002985,0.00003041,0.00082584,0.00077153,-0.00027200,0
 .07611491,0.21339048,0.00013713,-0.00148635,0.00122804,0.00024192,-0.0
 0024283,-0.00092747,-0.00193838,0.00228761,-0.00627173,-0.00093260,-0.
 00141220,0.00145340,0.00038936,0.00038435,-0.00152110,-0.00053069,0.00
 120135,-0.00067418,0.00028802,0.00062511,0.00135342,0.00031955,-0.0004
 8421,0.00031105,-0.00282458,0.00259940,0.00078225,0.00310244,0.0100430
 4,0.00987189,-0.06653141,-0.12932332,-0.17761598,-0.01022216,-0.021467
 17,-0.01134708,0.00081365,-0.00041192,0.00057137,0.00017627,0.00062166
 ,0.00075299,0.00036823,-0.00025494,-0.00147357,-0.00003872,0.00048959,
 0.00058713,-0.00000296,0.00073560,-0.00009871,-0.00020769,-0.00077629,
 0.00101955,-0.00001722,0.00043350,-0.00008726,-0.00003665,0.00004594,0
 .00031418,-0.00006813,0.00001573,0.00009918,-0.00007147,-0.00001649,-0
 .00000795,0.00226714,-0.00027724,0.00003222,0.07527392,0.13589613,0.18
 204717,0.00007537,-0.00056160,0.00057843,0.00017366,-0.00058581,-0.000
 42471,0.00403062,-0.00113768,0.00144712,-0.00009732,0.00062556,-0.0004
 8896,-0.00055624,0.00032815,-0.00066479,-0.00025625,0.00039014,-0.0002
 7342,0.00008175,0.00016742,0.00072313,0.00017018,-0.00054635,-0.000319
 57,-0.00018152,0.00034145,-0.00003002,-0.00025776,-0.00072586,-0.00010
 443,-0.00207523,0.00178708,0.00015412,0.00085565,-0.00928168,-0.002379
 27,-0.07031384,-0.07683747,-0.04898589,0.00580832,-0.00024293,0.004439
 68,0.00864615,-0.00324423,-0.00022294,-0.00019515,0.00010510,0.0005339
 7,-0.00069695,-0.00017631,-0.00040049,0.00004158,0.00006262,0.00017021
 ,0.00008163,0.00003559,0.00004200,-0.00006055,0.00003202,0.00000824,-0
 .00002811,-0.00000108,0.00000936,0.00000018,-0.00000860,-0.00000899,0.
 00014282,-0.00001305,-0.00002966,0.00046188,-0.00022362,0.00010997,0.0
 5930166,-0.00007551,-0.00060704,0.00058847,-0.00065186,-0.00079960,-0.
 00087554,-0.00108655,-0.00259201,0.00203636,0.00017716,0.00025622,0.00
 135117,0.00017992,0.00025080,0.00016524,-0.00007103,0.00031677,0.00009
 286,0.00002686,-0.00001266,0.00001667,0.00005253,0.00007407,0.00004038
 ,-0.00002370,-0.00023172,-0.00025616,0.00006974,0.00030837,0.00016218,
 0.00066486,0.00066444,-0.00053716,-0.00799944,-0.01417545,-0.01393742,
 -0.07817681,-0.25813533,-0.11752338,-0.00020238,0.00496208,0.00339903,
 -0.00317393,0.00181478,0.00135252,0.00011894,0.00039551,0.00003766,0.0
 0020618,0.00010561,0.00018750,0.00013924,-0.00001429,-0.00013248,-0.00
 001463,-0.00008645,-0.00002487,0.00007243,0.00004226,-0.00014819,-0.00
 001066,-0.00000625,0.00000963,-0.00000417,-0.00002600,0.00000560,-0.00
 003117,-0.00000124,0.00004701,0.00011351,-0.00030689,0.00077621,0.0874
 0717,0.26778565,0.00000502,0.00031341,-0.00014941,0.00039199,0.0007968
 8,0.00075631,0.00056507,0.00327652,-0.00170023,0.00014506,0.00034241,-
 0.00046094,0.00004058,-0.00008849,-0.00021800,0.00002169,-0.00002134,-
 0.00012060,0.00003516,0.00005685,0.00026442,0.00002305,-0.00024524,-0.
 00015241,-0.00002600,0.00004654,0.00001755,-0.00006183,-0.00019867,-0.
 00012502,0.00042004,-0.00065665,0.00156549,0.00673012,0.01669219,0.011
 86045,-0.04427659,-0.11581621,-0.12798930,-0.01012738,-0.02731238,-0.0
 1333712,0.00063574,0.00130429,-0.00510826,-0.00039660,-0.00090535,0.00
 036948,0.00023540,-0.00021387,-0.00042940,-0.00016360,0.00005557,0.000
 22032,-0.00000659,0.00005290,-0.00001596,-0.00003786,0.00001233,0.0001
 2730,-0.00001200,-0.00000253,0.00000029,-0.00000357,0.00001366,-0.0000
 0043,-0.00002211,-0.00000417,0.00000009,-0.00029787,-0.00063731,-0.000
 34977,0.04616718,0.12322982,0.13412994,0.00008160,-0.00032625,-0.00019
 162,-0.00066691,0.00042435,0.00040987,-0.00030039,0.00052504,0.0011860
 2,0.00387153,-0.00141188,-0.00156130,0.00084950,-0.00043081,-0.0001903
 9,-0.00016813,0.00003310,-0.00037862,-0.00000508,0.00013213,0.00055041
 ,0.00010075,-0.00029254,-0.00019444,0.00004269,0.00008170,0.00005260,-
 0.00057156,-0.00034273,0.00028759,-0.00039676,0.00000587,-0.00035788,0
 .00851225,-0.00332669,0.00026464,0.00589860,-0.00114734,-0.00386320,-0
 .07105080,-0.07965350,0.04949211,0.00061932,-0.00767178,0.00136271,-0.
 00198804,0.00165518,-0.00003976,-0.00025203,-0.00024173,-0.00011948,-0
 .00042824,0.00008653,0.00064844,0.00007709,0.00009732,0.00003196,-0.00
 007973,0.00001686,0.00021129,0.00004274,0.00001937,-0.00000284,0.00000
 973,0.00001164,-0.00001578,0.00010928,-0.00002771,-0.00002671,0.000202
 44,-0.00003934,-0.00005878,-0.00552020,0.00242683,0.00003389,0.0603341
 9,0.00011765,-0.00045817,-0.00067126,0.00015664,0.00073459,-0.00041862
 ,0.00039015,0.00029622,0.00002709,-0.00103350,-0.00302532,-0.00281493,
 -0.00089300,-0.00072772,0.00024038,0.00009080,-0.00003251,-0.00009833,
 -0.00005730,-0.00000158,-0.00018665,-0.00008040,0.00030271,0.00023802,
 0.00040675,-0.00014645,0.00080318,0.00004205,-0.00064071,-0.00020147,0
 .00009229,0.00075673,-0.00049677,-0.00325944,0.00118111,-0.00118236,-0
 .00006372,0.00538930,-0.00393032,-0.08090314,-0.25832059,0.11686361,-0
 .00743423,-0.01423657,0.01312599,0.00051421,0.00015340,0.00049269,0.00
 018139,0.00107838,-0.00009372,-0.00026143,-0.00040051,0.00068879,-0.00
 003366,0.00031178,-0.00007350,-0.00002686,-0.00004793,0.00027218,0.000
 00134,-0.00001482,0.00001992,0.00001368,0.00001491,-0.00000539,-0.0000
 3754,0.00001761,-0.00000331,-0.00003141,0.00001611,0.00004327,0.002364
 66,-0.00001269,0.00003054,0.08970881,0.26819736,0.00004517,-0.00000481
 ,-0.00049064,-0.00000695,0.00040114,0.00007131,-0.00008179,-0.00037114
 ,0.00027423,-0.00038174,-0.00348306,-0.00233805,-0.00043856,-0.0008037
 9,0.00092136,0.00009524,-0.00021722,0.00020854,-0.00004375,-0.00010552
 ,-0.00036292,-0.00004325,0.00025814,0.00017273,0.00006099,-0.00008131,
 0.00014962,-0.00019543,0.00016873,-0.00040227,0.00041335,0.00093091,0.
 00043809,-0.00045528,-0.00159862,-0.00515213,0.01058286,0.02727279,-0.
 01284653,0.04513923,0.11478749,-0.12629145,-0.00690228,-0.01697723,0.0
 1172487,-0.00053313,0.00059516,0.00145488,0.00006702,0.00022782,-0.000
 07658,-0.00001858,0.00017716,-0.00000456,0.00002594,-0.00002425,-0.000
 00709,0.00000377,-0.00003789,-0.00004606,0.00002490,0.00000413,0.00000
 345,0.00000746,0.00000008,0.00000113,-0.00000223,0.00013057,-0.0000285
 4,0.00000159,-0.00001549,-0.00000532,-0.00016553,0.00002013,0.00087567
 ,-0.04756731,-0.12185674,0.13207827,0.00005985,0.00073036,-0.00154366,
 -0.00044989,0.00148965,0.00011146,-0.00163869,0.00045203,0.00240545,0.
 00691140,-0.00009519,0.00169739,-0.00038408,-0.00052093,0.00004768,0.0
 0048947,-0.00090089,0.00042005,-0.00019553,-0.00033293,-0.00127682,-0.
 00024097,0.00078163,0.00041814,0.00058213,0.00036341,0.00061913,0.0000
 6377,0.00022205,0.00008173,0.00025667,-0.00077684,0.00042435,-0.000682
 15,-0.00051294,-0.00105971,-0.00028010,-0.00035606,0.00038667,-0.00330
 860,0.00126920,-0.00172065,0.00483953,-0.00765408,0.00930776,-0.087219
 22,-0.07951449,0.07034975,0.00602599,0.00277118,0.00287729,0.00420461,
 0.00024357,0.00109781,-0.00024851,-0.00021898,0.00010987,-0.00026276,-
 0.00020723,-0.00016155,0.00005689,0.00001191,-0.00002493,-0.00000885,0
 .00000058,0.00002564,-0.00003699,-0.00000886,-0.00002572,0.00000693,-0
 .00000226,0.00002607,0.00027258,-0.00007767,-0.00002353,0.00055958,0.0
 0004422,0.00034821,0.07265793,-0.00004729,-0.00052940,0.00034079,0.000
 09896,-0.00048534,-0.00031228,0.00037556,0.00062102,-0.00131964,-0.000
 60448,-0.00044490,-0.00196741,0.00035330,0.00006220,-0.00102567,-0.000
 18997,0.00032334,-0.00047251,0.00001458,0.00016224,0.00044865,0.000032
 40,-0.00013379,-0.00007548,0.00013402,-0.00022034,0.00027902,-0.000141
 79,-0.00071264,-0.00004392,-0.00015967,0.00075634,-0.00067401,0.000232
 45,0.00015398,0.00089280,0.00000783,0.00008485,-0.00014416,0.00079987,
 0.00123141,0.00099874,0.00459935,0.01155179,-0.00975644,-0.07603422,-0
 .19550351,0.12507338,-0.01191681,-0.01747098,0.01904018,0.00018206,-0.
 00388620,-0.00266498,-0.00042980,0.00035832,0.00096248,0.00015082,-0.0
 0038095,0.00023829,-0.00000808,-0.00000547,0.00001227,-0.00000310,0.00
 001952,-0.00000846,0.00000414,-0.00001001,0.00001422,0.00004152,0.0000
 1063,-0.00002758,-0.00006079,0.00001458,0.00000727,-0.00029297,-0.0003
 5911,0.00061254,0.08237038,0.20409060,-0.00007570,0.00134537,-0.000635
 22,-0.00020937,0.00031585,-0.00005433,0.00001777,0.00156429,0.00145567
 ,0.00339877,-0.00131462,-0.00631178,-0.00044983,-0.00034155,0.00158102
 ,0.00038108,-0.00084116,0.00082550,-0.00009293,-0.00034427,-0.00126560
 ,-0.00015967,0.00046413,0.00022958,-0.00020836,0.00067209,-0.00041285,
 0.00030669,0.00148411,0.00014038,0.00024418,-0.00174095,0.00144397,-0.
 00015122,0.00057139,-0.00161051,-0.00041521,-0.00104249,0.00126748,-0.
 00132184,0.00034062,0.00008690,0.01182028,0.02040168,-0.00813328,0.072
 83736,0.12579561,-0.17837708,-0.00366689,-0.01301756,0.01051272,0.0026
 8695,-0.00202376,-0.00186370,-0.00013280,-0.00085513,0.00071049,0.0000
 5968,-0.00027865,-0.00071765,0.00004248,0.00001478,-0.00003911,-0.0000
 2349,-0.00000931,0.00003813,-0.00001401,0.00000796,-0.00003609,-0.0000
 8766,-0.00000433,0.00001620,0.00011092,-0.00006553,-0.00001075,0.00001
 864,-0.00077605,-0.00033257,-0.08356965,-0.13063321,0.18125480,-0.0016
 2771,-0.00178955,0.00167318,-0.00043920,-0.00127282,-0.00078362,0.0000
 6097,0.00031196,-0.00167834,-0.00038629,0.00039344,0.00034030,0.006917
 17,-0.00084814,0.00142687,-0.00068679,0.00102867,-0.00055976,0.0002518
 1,0.00038284,0.00079829,0.00006530,-0.00022656,-0.00006292,0.00058637,
 -0.00065384,0.00029103,-0.00023493,-0.00088079,-0.00011944,-0.00020082
 ,0.00101657,-0.00084099,0.00048404,0.00048825,0.00086853,-0.00026328,0
 .00026359,-0.00000849,-0.00025303,0.00010650,0.00022325,0.00421552,-0.
 00077350,0.00075617,0.00596148,-0.00386055,0.00093331,-0.08796551,0.02
 324180,0.10438326,0.00486601,0.00073520,0.01189782,-0.00330082,-0.0000
 5489,-0.00214487,-0.00028258,0.00006063,0.00052413,0.00000702,-0.00001
 336,0.00002233,-0.00003710,0.00002203,-0.00001571,-0.00000888,-0.00001
 565,0.00002041,0.00005698,0.00000535,-0.00002707,0.00004853,-0.0000333
 9,0.00000433,0.00009948,-0.00002211,0.00001932,-0.00217851,0.00047778,
 -0.00137393,0.07341435,-0.00033518,0.00100921,0.00101777,0.00004142,-0
 .00034397,0.00010373,0.00008084,0.00023749,0.00027682,-0.00002468,-0.0
 0006322,-0.00016216,-0.00143385,-0.00403113,0.00363376,-0.00010711,0.0
 0025000,0.00044303,-0.00000977,-0.00015175,-0.00047549,-0.00006637,0.0
 0026172,0.00013242,0.00001600,0.00016084,0.00014064,0.00006440,0.00016
 998,0.00003561,0.00004258,-0.00027099,0.00025954,-0.00006461,-0.000125
 20,-0.00021093,-0.00015531,-0.00051498,-0.00009258,0.00042321,0.000533
 59,-0.00109052,-0.00165565,-0.00543535,0.00009832,0.01194837,-0.004960
 02,-0.03022656,0.01896136,-0.07025533,-0.04641304,-0.01073432,0.009786
 25,0.02280940,0.00009314,0.00147507,-0.00001046,0.00023721,-0.00007083
 ,-0.00082019,0.00001773,-0.00000258,0.00001417,0.00000464,-0.00000825,
 0.00000567,0.00001610,0.00001747,-0.00000630,-0.00001795,-0.00000426,0
 .00001276,-0.00001735,0.00003119,-0.00012654,-0.00000915,-0.00000087,0
 .00000257,0.00039663,0.00076271,0.00030773,-0.01793349,0.07199218,-0.0
 0019864,-0.00188167,0.00105654,-0.00022459,-0.00052333,-0.00020609,-0.
 00002555,-0.00071675,-0.00140289,-0.00057040,-0.00085161,0.00170815,0.
 00310963,0.00299366,-0.00273198,-0.00026163,0.00076873,-0.00170185,0.0
 0028272,0.00058894,0.00235638,0.00034311,-0.00139297,-0.00083494,-0.00
 024267,-0.00025769,-0.00079829,-0.00014525,-0.00050632,-0.00008004,-0.
 00008971,0.00105963,-0.00082756,0.00041738,0.00015606,0.00127989,-0.00
 004207,0.00042503,-0.00058324,0.00013734,0.00072606,0.00053967,0.00208
 486,-0.00053224,-0.00032496,0.00401206,0.00181738,-0.00193338,0.104366
 64,-0.04712512,-0.30287984,0.00696298,-0.00735757,-0.00639299,-0.00155
 120,0.00065127,-0.00016436,-0.00034534,0.00007189,0.00142536,-0.000095
 34,-0.00000994,0.00002927,-0.00001385,0.00001198,-0.00003773,-0.000017
 30,-0.00000576,0.00004020,0.00003930,0.00001074,-0.00004038,0.00000272
 ,0.00000538,-0.00002833,0.00001218,-0.00003687,0.00000696,-0.00139943,
 0.00010955,0.00016735,-0.11685726,0.05103486,0.31259622,-0.00029165,-0
 .00112382,0.00065315,-0.00066206,-0.00059170,0.00007653,0.00007988,0.0
 0038312,0.00003310,0.00083892,0.00046971,0.00010693,0.00385029,0.00212
 223,-0.00043354,0.00846626,0.00260707,0.00216291,-0.00039584,0.0001977
 6,-0.00030053,-0.00057339,0.00011010,0.00043305,0.00004640,-0.00009923
 ,0.00000048,0.00009766,0.00034824,0.00001398,-0.00000349,-0.00042799,0
 .00036713,-0.00016790,0.00019450,-0.00032635,-0.00007933,-0.00013865,0
 .00016289,0.00007765,-0.00009847,-0.00003255,-0.00042793,-0.00045354,0
 .00047885,-0.00025252,0.00025842,0.00003909,-0.00197445,-0.00133767,-0
 .00100195,0.00050331,0.00546545,0.00577104,-0.07194414,0.03601128,0.08
 790971,0.00590516,0.00318638,-0.00254763,0.00020180,0.00006745,-0.0000
 2397,0.00010875,0.00003856,-0.00000549,0.00000989,-0.00000019,-0.00001
 968,0.00004293,-0.00001375,-0.00001339,-0.00000239,-0.00000895,0.00000
 658,0.00001954,0.00001421,0.00000428,0.00009936,0.00000109,0.00001527,
 0.00055861,0.00023481,0.00018364,0.06135613,-0.00027089,0.00011557,-0.
 00013071,-0.00013242,0.00049380,0.00072758,-0.00011691,-0.00078844,0.0
 0045450,0.00099199,-0.00041967,-0.00121325,0.00112637,-0.00575769,0.00
 032799,0.00297487,-0.00227317,0.00325620,-0.00032713,0.00085274,0.0007
 9424,0.00008020,-0.00057310,0.00008020,-0.00036553,0.00029439,-0.00069
 691,0.00008779,0.00049662,-0.00000585,0.00007327,-0.00026652,0.0002605
 7,-0.00012953,-0.00009915,-0.00012669,0.00001902,0.00006317,-0.0001916
 2,0.00001115,0.00015549,0.00019122,0.00022021,0.00014479,-0.00057624,-
 0.00019463,0.00074649,0.00068792,-0.00012403,0.00110650,-0.00074462,0.
 01017968,-0.00705495,-0.02670936,0.03957785,-0.10256126,-0.09940613,-0
 .00622098,0.01019525,0.02056170,0.00002581,0.00002256,-0.00002367,0.00
 003190,0.00006268,0.00006889,-0.00001547,0.00000755,0.00000994,-0.0000
 1534,0.00000266,-0.00002049,0.00000294,0.00000157,-0.00000366,-0.00001
 372,-0.00002210,-0.00001431,0.00000735,-0.00001442,0.00002152,-0.00023
 460,-0.00042767,0.00070811,-0.04539077,0.10520653,-0.00029819,0.000258
 99,0.00044591,-0.00009888,-0.00009426,0.00030697,-0.00003029,-0.000211
 02,-0.00015862,0.00016911,-0.00017005,0.00062383,0.00029667,0.00100344
 ,0.00041557,0.00153720,0.00366749,-0.00165159,0.00028368,-0.00062841,0
 .00034108,-0.00018128,-0.00029400,-0.00046786,-0.00018925,0.00018676,-
 0.00029493,0.00001246,-0.00002549,-0.00001815,-0.00000291,0.00017595,-
 0.00009955,0.00002309,-0.00000485,0.00027506,0.00001817,0.00011719,-0.
 00015754,0.00003961,0.00014215,0.00014872,0.00013875,-0.00006823,-0.00
 054999,-0.00005549,0.00036648,0.00025571,-0.00073297,-0.00084757,0.000
 48825,-0.00127289,0.00333585,0.00465902,0.08509920,-0.09735711,-0.2811
 5666,0.00873986,-0.01054435,-0.01765930,0.00001992,0.00003547,-0.00001
 117,0.00002101,-0.00006479,-0.00007309,-0.00000199,0.00000463,0.000008
 33,0.00001956,-0.00000445,-0.00001422,-0.00000220,-0.00000047,-0.00000
 471,-0.00000479,-0.00000468,0.00000418,0.00002890,-0.00001786,0.000020
 65,0.00026280,-0.00067895,-0.00026308,-0.09230939,0.10216142,0.2940466
 9,0.00401972,0.00010443,0.00186248,0.00016504,0.00073025,-0.00000213,0
 .00007228,0.00011759,0.00080280,-0.00055417,0.00011776,-0.00073229,-0.
 00009245,-0.00022836,-0.00075790,0.00074662,0.00901140,0.00348771,-0.0
 0205712,-0.00155520,-0.00092788,-0.00026255,0.00064578,0.00033944,-0.0
 0017947,-0.00025831,-0.00022524,0.00016614,0.00063120,0.00006124,0.000
 08474,-0.00055898,0.00048877,-0.00025460,-0.00015980,-0.00045152,-0.00
 005989,-0.00003096,-0.00001307,0.00008185,-0.00005232,0.00001355,0.000
 04316,-0.00014979,0.00010054,-0.00069712,0.00037266,-0.00022243,-0.000
 19325,-0.00040059,0.00037129,0.00860267,0.00280768,0.00172788,0.005792
 20,-0.00233851,0.00376398,-0.07159013,0.09275190,0.00543672,0.00046065
 ,0.00012018,0.00022685,0.00014240,0.00002875,-0.00001582,0.00000006,0.
 00001233,-0.00000213,-0.00002818,-0.00000479,0.00000823,0.00004898,-0.
 00001350,-0.00000536,-0.00000242,-0.00000111,-0.00000353,0.00004819,0.
 00001287,0.00001250,0.00027181,-0.00001365,0.00012564,-0.00548743,-0.0
 0185844,-0.00152944,0.06071228,0.00057712,0.00024032,-0.00062367,0.000
 30175,-0.00029626,0.00011070,0.00006002,-0.00002088,-0.00049076,-0.000
 17446,0.00012587,0.00007822,-0.00023378,0.00081120,-0.00043582,0.00256
 929,-0.00385974,0.00255238,-0.00080105,0.00039082,-0.00030793,-0.00002
 312,0.00014659,0.00003325,0.00003468,-0.00024726,0.00006440,-0.0000542
 5,-0.00009697,-0.00000283,-0.00004232,0.00011324,-0.00011981,0.0000414
 7,0.00019991,0.00013639,-0.00003711,0.00000652,0.00006100,0.00001662,-
 0.00004917,0.00000120,-0.00001688,0.00002854,-0.00000479,-0.00030924,-
 0.00008988,0.00005530,0.00013547,-0.00002702,-0.00032008,0.00224788,0.
 00073581,0.00286200,0.00622733,-0.01263981,-0.00287465,0.09107589,-0.3
 2302365,-0.02404856,0.00008887,-0.00025427,-0.00070649,0.00003913,0.00
 002001,-0.00003298,0.00000555,-0.00000797,-0.00001113,0.00001551,-0.00
 000056,-0.00001022,0.00001453,-0.00001629,0.00000122,0.00000340,-0.000
 00253,0.00000202,0.00002521,-0.00004648,-0.00001854,0.00007861,-0.0000
 2133,0.00005859,-0.00202563,0.00028979,-0.00043928,-0.09984046,0.33759
 147,0.00112611,-0.00186983,-0.00452168,0.00070990,-0.00155581,0.000261
 72,0.00005155,-0.00022089,-0.00073236,-0.00007579,0.00033685,-0.000095
 54,0.00001193,0.00057849,-0.00102080,0.01032974,-0.02801703,0.00165378
 ,-0.00005628,-0.00018432,0.00182099,-0.00009431,0.00039269,0.00004148,
 -0.00000610,-0.00023737,0.00003096,-0.00001366,0.00028391,0.00002263,0
 .00001379,-0.00016439,0.00013567,0.00005688,0.00025349,-0.00000546,-0.
 00007291,-0.00009985,0.00016241,0.00000404,-0.00007681,-0.00005338,-0.
 00021303,-0.00019507,0.00017590,0.00006588,0.00046018,-0.00023361,-0.0
 0039749,0.00061653,0.00079023,0.00238202,0.00291576,-0.00398578,-0.008
 27662,0.02773646,0.00428070,0.01004975,-0.02572077,-0.06182469,-0.0003
 1081,0.00070347,-0.00040119,0.00000058,0.00001830,-0.00002074,-0.00000
 028,-0.00001917,-0.00001835,-0.00000355,0.00000183,-0.00000531,0.00000
 380,-0.00002263,0.00001333,0.00001054,0.00000529,-0.00000058,0.0000222
 9,0.00011342,0.00004968,0.00002707,-0.00001508,0.00002593,-0.00140413,
 -0.00044849,0.00054046,-0.01394089,0.02443084,0.06291361\\-0.00000024,
 -0.00000040,-0.00000021,-0.00000140,-0.00000026,-0.00000117,-0.0000004
 1,0.00000029,-0.00000104,0.00000040,0.00000114,-0.00000082,0.00000074,
 0.00000001,-0.00000113,-0.00000033,0.00000025,0.00000063,-0.00000106,-
 0.00000009,-0.00000049,-0.00000136,0.00000020,0.00000024,-0.00000083,-
 0.00000091,0.00000089,-0.00000160,0.00000010,0.00000007,-0.00000067,-0
 .00000040,0.00000044,0.00000002,0.00000076,-0.00000008,-0.00000016,0.0
 0000081,-0.00000004,0.00000078,-0.00000010,0.00000005,0.00000069,-0.00
 000073,0.00000091,0.00000223,0.00000003,-0.00000106,0.00000176,-0.0000
 0020,0.00000021,0.00000107,0.00000038,-0.00000014,0.00000076,0.0000000
 7,0.00000057,0.,-0.00000029,-0.00000076,-0.00000154,0.00000004,0.00000
 030,-0.00000217,0.00000008,0.00000019,-0.00000226,-0.00000010,0.000000
 23,-0.00000138,0.00000010,0.00000024,0.00000017,-0.00000017,0.00000041
 ,0.00000138,-0.00000002,0.00000047,0.00000188,-0.00000015,0.00000040,0
 .00000195,-0.00000019,0.00000028,0.00000143,-0.00000014,0.00000009,0.0
 0000015,-0.00000014,0.00000035\\\@
 The archive entry for this job was punched.


 HEAVEN'S NET CASTS WIDE.
 THOUGH ITS MESHES ARE COARSE, NOTHING SLIPS THROUGH.

                                          -- LAO-TSU
 Job cpu time:       0 days  0 hours 46 minutes  5.1 seconds.
 Elapsed time:       0 days  0 hours  2 minutes 57.1 seconds.
 File lengths (MBytes):  RWF=   1456 Int=      0 D2E=      0 Chk=     12 Scr=     32
 Normal termination of Gaussian 16 at Fri Jul 21 23:59:12 2023.
