 Entering Gaussian System, Link 0=g16
 Initial command:
 /sw/arch/RHEL8/EB_production/2022/software/Gaussian/g16.c02/l1.exe "/scratch-local/calessandra.3342402/calessandra/Gau-2253047.inp" -scrdir="/scratch-local/calessandra.3342402/calessandra/"
 Entering Link 1 = /sw/arch/RHEL8/EB_production/2022/software/Gaussian/g16.c02/l1.exe PID=   2253049.
  
 Copyright (c) 1988-2021, Gaussian, Inc.  All Rights Reserved.
  
 This is part of the Gaussian(R) 16 program.  It is based on
 the Gaussian(R) 09 system (copyright 2009, Gaussian, Inc.),
 the Gaussian(R) 03 system (copyright 2003, Gaussian, Inc.),
 the Gaussian(R) 98 system (copyright 1998, Gaussian, Inc.),
 the Gaussian(R) 94 system (copyright 1995, Gaussian, Inc.),
 the Gaussian 92(TM) system (copyright 1992, Gaussian, Inc.),
 the Gaussian 90(TM) system (copyright 1990, Gaussian, Inc.),
 the Gaussian 88(TM) system (copyright 1988, Gaussian, Inc.),
 the Gaussian 86(TM) system (copyright 1986, Carnegie Mellon
 University), and the Gaussian 82(TM) system (copyright 1983,
 Carnegie Mellon University). Gaussian is a federally registered
 trademark of Gaussian, Inc.
  
 This software contains proprietary and confidential information,
 including trade secrets, belonging to Gaussian, Inc.
  
 This software is provided under written license and may be
 used, copied, transmitted, or stored only in accord with that
 written license.
  
 The following legend is applicable only to US Government
 contracts under FAR:
  
                    RESTRICTED RIGHTS LEGEND
  
 Use, reproduction and disclosure by the US Government is
 subject to restrictions as set forth in subparagraphs (a)
 and (c) of the Commercial Computer Software - Restricted
 Rights clause in FAR 52.227-19.
  
 Gaussian, Inc.
 340 Quinnipiac St., Bldg. 40, Wallingford CT 06492
  
  
 ---------------------------------------------------------------
 Warning -- This program may not be used in any manner that
 competes with the business of Gaussian, Inc. or will provide
 assistance to any competitor of Gaussian, Inc.  The licensee
 of this program is prohibited from giving any competitor of
 Gaussian, Inc. access to this program.  By using this program,
 the user acknowledges that Gaussian, Inc. is engaged in the
 business of creating and licensing software in the field of
 computational chemistry and represents and warrants to the
 licensee that it is not a competitor of Gaussian, Inc. and that
 it will not use this program in any manner prohibited above.
 ---------------------------------------------------------------
  

 Cite this work as:
 Gaussian 16, Revision C.02,
 M. J. Frisch, G. W. Trucks, H. B. Schlegel, G. E. Scuseria, 
 M. A. Robb, J. R. Cheeseman, G. Scalmani, V. Barone, 
 G. A. Petersson, H. Nakatsuji, X. Li, M. Caricato, A. V. Marenich, 
 J. Bloino, B. G. Janesko, R. Gomperts, B. Mennucci, H. P. Hratchian, 
 J. V. Ortiz, A. F. Izmaylov, J. L. Sonnenberg, D. Williams-Young, 
 F. Ding, F. Lipparini, F. Egidi, J. Goings, B. Peng, A. Petrone, 
 T. Henderson, D. Ranasinghe, V. G. Zakrzewski, J. Gao, N. Rega, 
 G. Zheng, W. Liang, M. Hada, M. Ehara, K. Toyota, R. Fukuda, 
 J. Hasegawa, M. Ishida, T. Nakajima, Y. Honda, O. Kitao, H. Nakai, 
 T. Vreven, K. Throssell, J. A. Montgomery, Jr., J. E. Peralta, 
 F. Ogliaro, M. J. Bearpark, J. J. Heyd, E. N. Brothers, K. N. Kudin, 
 V. N. Staroverov, T. A. Keith, R. Kobayashi, J. Normand, 
 K. Raghavachari, A. P. Rendell, J. C. Burant, S. S. Iyengar, 
 J. Tomasi, M. Cossi, J. M. Millam, M. Klene, C. Adamo, R. Cammi, 
 J. W. Ochterski, R. L. Martin, K. Morokuma, O. Farkas, 
 J. B. Foresman, and D. J. Fox, Gaussian, Inc., Wallingford CT, 2019.
 
 ******************************************
 Gaussian 16:  ES64L-G16RevC.02  7-Dec-2021
                15-Aug-2023 
 ******************************************
 %NProcShared=16
 Will use up to   16 processors via shared memory.
 %LindaWorkers=tcn173
 %Chk=cor+_aliph_C8C9_ts_S2.chk
 %mem=9Gb
 SetLPE:    new flags="-opt 'Tsnet.Node.lindarsharg: ssh'  -nodelist 'tcn173.local.snellius.surf.nl' -env GAUSS_MDEF=1207959552 -env GAUSS_EXEDIR="/sw/arch/RHEL8/EB_production/2022/software/Gaussian/g16.c02/bsd:/sw/arch/RHEL8/EB_production/2022/software/Gaussian/g16.c02""
 Will use up to    1 processors via Linda.
 ----------------------------------------------------------------------
 #n m062x/6-31G(d) scf=qc Opt(ts,calcfc,modredundant, tight, noeigentes
 t) int=ultrafine freq=noraman
 ----------------------------------------------------------------------
 1/5=1,7=10,10=4,11=1,18=120,26=4,38=1/1,3;
 2/9=110,12=2,17=6,18=5,40=1/2;
 3/5=1,6=6,7=1,11=2,25=1,30=1,71=2,74=-55,75=-5,140=1/1,2,3;
 4//1;
 5/5=2,8=3,38=5/8;
 8/6=4,10=90,11=11/1;
 11/6=1,8=1,9=11,15=111,16=1/1,2,10;
 10/6=1,13=1/2;
 6/7=2,8=2,9=2,10=2,28=1/1;
 7/10=1,25=1/1,2,3,16;
 1/5=1,7=10,10=4,11=1,18=20,26=4/3(2);
 2/9=110/2;
 99//99;
 2/9=110/2;
 3/5=1,6=6,7=1,11=2,25=1,30=1,71=1,74=-55,75=-5/1,2,3;
 4/5=5,16=3,69=1/1;
 5/5=2,8=3,38=5/8;
 7//1,2,3,16;
 1/5=1,7=10,11=1,18=20,26=4/3(-5);
 2/9=110/2;
 6/7=2,8=2,9=2,10=2,19=2,28=1/1;
 99/9=1/99;
 ----------------------------------------
 Corannulene aliph ts for CCbond openinfg
 ----------------------------------------
 Symbolic Z-matrix:
 Charge =  1 Multiplicity = 2
 C                     0.3431   -1.15495  -0.56111 
 C                    -1.01054  -0.68479  -0.59623 
 C                    -0.9569    0.72826  -0.62338 
 C                     0.40858   1.11987  -0.62514 
 C                     1.20798  -0.05285  -0.60785 
 C                     0.75729  -2.4155   -0.05959 
 C                    -0.33276  -3.1841    0.27083 
 C                    -1.82402  -3.43285   0.23175 
 C                    -2.0739   -1.37814  -0.076 
 C                    -3.21378  -0.58542   0.28144 
 C                    -3.15889   0.80692   0.26239 
 C                    -1.95833   1.52486  -0.10646 
 C                    -1.54957   2.87392   0.23212 
 C                    -0.21635   3.25238   0.23397 
 C                     0.83926   2.32049  -0.1082 
 C                     2.24938   2.34431   0.24389 
 C                     3.03728   1.19834   0.25791 
 C                     2.49366  -0.09178  -0.08134 
 C                     2.99687  -1.41967   0.25002 
 C                     2.1811   -2.52714   0.25994 
 H                    -2.30913  -4.09107  -0.51119 
 H                    -4.11161  -1.06579   0.65312 
 H                    -4.0194    1.36013   0.62364 
 H                    -2.2932    3.58342   0.57738 
 H                     0.04329   4.24619   0.58104 
 H                     2.68962   3.27341   0.59113 
 H                     4.05803   1.27064   0.61468 
 H                     4.02761  -1.52637   0.5681 
 H                     2.57502  -3.48596   0.57285 
 H                    -2.27088  -3.72632   1.19272 
 
 The following ModRedundant input section has been read:
 B       8       9 B                                                           
 

 GradGradGradGradGradGradGradGradGradGradGradGradGradGradGradGradGradGrad
 Berny optimization.
 Initialization pass.
                           ----------------------------
                           !    Initial Parameters    !
                           ! (Angstroms and Degrees)  !
 --------------------------                            --------------------------
 ! Name  Definition              Value          Derivative Info.                !
 --------------------------------------------------------------------------------
 ! R1    R(1,2)                  1.4334         calculate D2E/DX2 analytically  !
 ! R2    R(1,5)                  1.4017         calculate D2E/DX2 analytically  !
 ! R3    R(1,6)                  1.4185         calculate D2E/DX2 analytically  !
 ! R4    R(2,3)                  1.4143         calculate D2E/DX2 analytically  !
 ! R5    R(2,9)                  1.3719         calculate D2E/DX2 analytically  !
 ! R6    R(3,4)                  1.4205         calculate D2E/DX2 analytically  !
 ! R7    R(3,12)                 1.3801         calculate D2E/DX2 analytically  !
 ! R8    R(4,5)                  1.4194         calculate D2E/DX2 analytically  !
 ! R9    R(4,15)                 1.3763         calculate D2E/DX2 analytically  !
 ! R10   R(5,18)                 1.3899         calculate D2E/DX2 analytically  !
 ! R11   R(6,7)                  1.3741         calculate D2E/DX2 analytically  !
 ! R12   R(6,20)                 1.4635         calculate D2E/DX2 analytically  !
 ! R13   R(7,8)                  1.5124         calculate D2E/DX2 analytically  !
 ! R14   R(8,9)                  2.0926         calculate D2E/DX2 analytically  !
 ! R15   R(8,21)                 1.1048         calculate D2E/DX2 analytically  !
 ! R16   R(8,30)                 1.0997         calculate D2E/DX2 analytically  !
 ! R17   R(9,10)                 1.4337         calculate D2E/DX2 analytically  !
 ! R18   R(10,11)                1.3936         calculate D2E/DX2 analytically  !
 ! R19   R(10,22)                1.084          calculate D2E/DX2 analytically  !
 ! R20   R(11,12)                1.4467         calculate D2E/DX2 analytically  !
 ! R21   R(11,23)                1.0849         calculate D2E/DX2 analytically  !
 ! R22   R(12,13)                1.4497         calculate D2E/DX2 analytically  !
 ! R23   R(13,14)                1.3859         calculate D2E/DX2 analytically  !
 ! R24   R(13,24)                1.0842         calculate D2E/DX2 analytically  !
 ! R25   R(14,15)                1.4491         calculate D2E/DX2 analytically  !
 ! R26   R(14,25)                1.0842         calculate D2E/DX2 analytically  !
 ! R27   R(15,16)                1.4536         calculate D2E/DX2 analytically  !
 ! R28   R(16,17)                1.3908         calculate D2E/DX2 analytically  !
 ! R29   R(16,26)                1.0852         calculate D2E/DX2 analytically  !
 ! R30   R(17,18)                1.4405         calculate D2E/DX2 analytically  !
 ! R31   R(17,27)                1.0837         calculate D2E/DX2 analytically  !
 ! R32   R(18,19)                1.4582         calculate D2E/DX2 analytically  !
 ! R33   R(19,20)                1.3755         calculate D2E/DX2 analytically  !
 ! R34   R(19,28)                1.084          calculate D2E/DX2 analytically  !
 ! R35   R(20,29)                1.0828         calculate D2E/DX2 analytically  !
 ! A1    A(2,1,5)              108.9033         calculate D2E/DX2 analytically  !
 ! A2    A(2,1,6)              125.1627         calculate D2E/DX2 analytically  !
 ! A3    A(5,1,6)              122.0281         calculate D2E/DX2 analytically  !
 ! A4    A(1,2,3)              106.9994         calculate D2E/DX2 analytically  !
 ! A5    A(1,2,9)              123.8424         calculate D2E/DX2 analytically  !
 ! A6    A(3,2,9)              122.7935         calculate D2E/DX2 analytically  !
 ! A7    A(2,3,4)              108.1744         calculate D2E/DX2 analytically  !
 ! A8    A(2,3,12)             122.8184         calculate D2E/DX2 analytically  !
 ! A9    A(4,3,12)             122.6053         calculate D2E/DX2 analytically  !
 ! A10   A(3,4,5)              108.276          calculate D2E/DX2 analytically  !
 ! A11   A(3,4,15)             122.7398         calculate D2E/DX2 analytically  !
 ! A12   A(5,4,15)             122.6798         calculate D2E/DX2 analytically  !
 ! A13   A(1,5,4)              107.6089         calculate D2E/DX2 analytically  !
 ! A14   A(1,5,18)             122.4192         calculate D2E/DX2 analytically  !
 ! A15   A(4,5,18)             123.2813         calculate D2E/DX2 analytically  !
 ! A16   A(1,6,7)              110.5154         calculate D2E/DX2 analytically  !
 ! A17   A(1,6,20)             115.4083         calculate D2E/DX2 analytically  !
 ! A18   A(7,6,20)             132.5792         calculate D2E/DX2 analytically  !
 ! A19   A(6,7,8)              150.2272         calculate D2E/DX2 analytically  !
 ! A20   A(7,8,9)               87.7102         calculate D2E/DX2 analytically  !
 ! A21   A(7,8,21)             123.2533         calculate D2E/DX2 analytically  !
 ! A22   A(7,8,30)             114.9609         calculate D2E/DX2 analytically  !
 ! A23   A(9,8,21)             115.7008         calculate D2E/DX2 analytically  !
 ! A24   A(9,8,30)             110.0007         calculate D2E/DX2 analytically  !
 ! A25   A(21,8,30)            104.4909         calculate D2E/DX2 analytically  !
 ! A26   A(2,9,8)              117.3519         calculate D2E/DX2 analytically  !
 ! A27   A(2,9,10)             115.5534         calculate D2E/DX2 analytically  !
 ! A28   A(8,9,10)             126.9545         calculate D2E/DX2 analytically  !
 ! A29   A(9,10,11)            121.179          calculate D2E/DX2 analytically  !
 ! A30   A(9,10,22)            119.933          calculate D2E/DX2 analytically  !
 ! A31   A(11,10,22)           118.6908         calculate D2E/DX2 analytically  !
 ! A32   A(10,11,12)           122.1417         calculate D2E/DX2 analytically  !
 ! A33   A(10,11,23)           118.2733         calculate D2E/DX2 analytically  !
 ! A34   A(12,11,23)           119.3455         calculate D2E/DX2 analytically  !
 ! A35   A(3,12,11)            114.2822         calculate D2E/DX2 analytically  !
 ! A36   A(3,12,13)            114.8354         calculate D2E/DX2 analytically  !
 ! A37   A(11,12,13)           129.5135         calculate D2E/DX2 analytically  !
 ! A38   A(12,13,14)           121.7135         calculate D2E/DX2 analytically  !
 ! A39   A(12,13,24)           119.3358         calculate D2E/DX2 analytically  !
 ! A40   A(14,13,24)           118.7287         calculate D2E/DX2 analytically  !
 ! A41   A(13,14,15)           121.6583         calculate D2E/DX2 analytically  !
 ! A42   A(13,14,25)           118.7576         calculate D2E/DX2 analytically  !
 ! A43   A(15,14,25)           119.3806         calculate D2E/DX2 analytically  !
 ! A44   A(4,15,14)            114.9444         calculate D2E/DX2 analytically  !
 ! A45   A(4,15,16)            114.1318         calculate D2E/DX2 analytically  !
 ! A46   A(14,15,16)           129.7133         calculate D2E/DX2 analytically  !
 ! A47   A(15,16,17)           122.5825         calculate D2E/DX2 analytically  !
 ! A48   A(15,16,26)           119.0179         calculate D2E/DX2 analytically  !
 ! A49   A(17,16,26)           118.1914         calculate D2E/DX2 analytically  !
 ! A50   A(16,17,18)           121.4529         calculate D2E/DX2 analytically  !
 ! A51   A(16,17,27)           118.813          calculate D2E/DX2 analytically  !
 ! A52   A(18,17,27)           119.5208         calculate D2E/DX2 analytically  !
 ! A53   A(5,18,17)            114.4078         calculate D2E/DX2 analytically  !
 ! A54   A(5,18,19)            115.5195         calculate D2E/DX2 analytically  !
 ! A55   A(17,18,19)           129.1854         calculate D2E/DX2 analytically  !
 ! A56   A(18,19,20)           122.0163         calculate D2E/DX2 analytically  !
 ! A57   A(18,19,28)           118.9776         calculate D2E/DX2 analytically  !
 ! A58   A(20,19,28)           118.8534         calculate D2E/DX2 analytically  !
 ! A59   A(6,20,19)            120.9299         calculate D2E/DX2 analytically  !
 ! A60   A(6,20,29)            118.9853         calculate D2E/DX2 analytically  !
 ! A61   A(19,20,29)           119.9521         calculate D2E/DX2 analytically  !
 ! D1    D(5,1,2,3)             -1.7805         calculate D2E/DX2 analytically  !
 ! D2    D(5,1,2,9)           -154.2642         calculate D2E/DX2 analytically  !
 ! D3    D(6,1,2,3)            156.18           calculate D2E/DX2 analytically  !
 ! D4    D(6,1,2,9)              3.6963         calculate D2E/DX2 analytically  !
 ! D5    D(2,1,5,4)              2.0138         calculate D2E/DX2 analytically  !
 ! D6    D(2,1,5,18)           154.0924         calculate D2E/DX2 analytically  !
 ! D7    D(6,1,5,4)           -156.7724         calculate D2E/DX2 analytically  !
 ! D8    D(6,1,5,18)            -4.6938         calculate D2E/DX2 analytically  !
 ! D9    D(2,1,6,7)              5.9006         calculate D2E/DX2 analytically  !
 ! D10   D(2,1,6,20)          -161.9309         calculate D2E/DX2 analytically  !
 ! D11   D(5,1,6,7)            161.1452         calculate D2E/DX2 analytically  !
 ! D12   D(5,1,6,20)            -6.6864         calculate D2E/DX2 analytically  !
 ! D13   D(1,2,3,4)              0.8456         calculate D2E/DX2 analytically  !
 ! D14   D(1,2,3,12)          -151.5998         calculate D2E/DX2 analytically  !
 ! D15   D(9,2,3,4)            153.6857         calculate D2E/DX2 analytically  !
 ! D16   D(9,2,3,12)             1.2403         calculate D2E/DX2 analytically  !
 ! D17   D(1,2,9,8)            -19.7522         calculate D2E/DX2 analytically  !
 ! D18   D(1,2,9,10)           156.2464         calculate D2E/DX2 analytically  !
 ! D19   D(3,2,9,8)           -168.0451         calculate D2E/DX2 analytically  !
 ! D20   D(3,2,9,10)             7.9536         calculate D2E/DX2 analytically  !
 ! D21   D(2,3,4,5)              0.3759         calculate D2E/DX2 analytically  !
 ! D22   D(2,3,4,15)          -152.2926         calculate D2E/DX2 analytically  !
 ! D23   D(12,3,4,5)           152.8926         calculate D2E/DX2 analytically  !
 ! D24   D(12,3,4,15)            0.2241         calculate D2E/DX2 analytically  !
 ! D25   D(2,3,12,11)           -9.7091         calculate D2E/DX2 analytically  !
 ! D26   D(2,3,12,13)          158.2341         calculate D2E/DX2 analytically  !
 ! D27   D(4,3,12,11)         -158.26           calculate D2E/DX2 analytically  !
 ! D28   D(4,3,12,13)            9.6832         calculate D2E/DX2 analytically  !
 ! D29   D(3,4,5,1)             -1.478          calculate D2E/DX2 analytically  !
 ! D30   D(3,4,5,18)          -153.2597         calculate D2E/DX2 analytically  !
 ! D31   D(15,4,5,1)           151.2104         calculate D2E/DX2 analytically  !
 ! D32   D(15,4,5,18)           -0.5713         calculate D2E/DX2 analytically  !
 ! D33   D(3,4,15,14)           -9.8917         calculate D2E/DX2 analytically  !
 ! D34   D(3,4,15,16)          158.7842         calculate D2E/DX2 analytically  !
 ! D35   D(5,4,15,14)         -158.6954         calculate D2E/DX2 analytically  !
 ! D36   D(5,4,15,16)            9.9805         calculate D2E/DX2 analytically  !
 ! D37   D(1,5,18,17)         -157.0068         calculate D2E/DX2 analytically  !
 ! D38   D(1,5,18,19)           13.219          calculate D2E/DX2 analytically  !
 ! D39   D(4,5,18,17)           -9.2751         calculate D2E/DX2 analytically  !
 ! D40   D(4,5,18,19)          160.9508         calculate D2E/DX2 analytically  !
 ! D41   D(1,6,7,8)             11.8903         calculate D2E/DX2 analytically  !
 ! D42   D(20,6,7,8)           176.905          calculate D2E/DX2 analytically  !
 ! D43   D(1,6,20,19)            8.9445         calculate D2E/DX2 analytically  !
 ! D44   D(1,6,20,29)         -175.2445         calculate D2E/DX2 analytically  !
 ! D45   D(7,6,20,19)         -155.504          calculate D2E/DX2 analytically  !
 ! D46   D(7,6,20,29)           20.3071         calculate D2E/DX2 analytically  !
 ! D47   D(6,7,8,9)            -23.4522         calculate D2E/DX2 analytically  !
 ! D48   D(6,7,8,21)            96.0714         calculate D2E/DX2 analytically  !
 ! D49   D(6,7,8,30)          -134.4885         calculate D2E/DX2 analytically  !
 ! D50   D(7,8,9,2)             22.6151         calculate D2E/DX2 analytically  !
 ! D51   D(7,8,9,10)          -152.8665         calculate D2E/DX2 analytically  !
 ! D52   D(21,8,9,2)          -103.5268         calculate D2E/DX2 analytically  !
 ! D53   D(21,8,9,10)           80.9917         calculate D2E/DX2 analytically  !
 ! D54   D(30,8,9,2)           138.3933         calculate D2E/DX2 analytically  !
 ! D55   D(30,8,9,10)          -37.0882         calculate D2E/DX2 analytically  !
 ! D56   D(2,9,10,11)           -8.195          calculate D2E/DX2 analytically  !
 ! D57   D(2,9,10,22)          176.9742         calculate D2E/DX2 analytically  !
 ! D58   D(8,9,10,11)          167.3567         calculate D2E/DX2 analytically  !
 ! D59   D(8,9,10,22)           -7.4741         calculate D2E/DX2 analytically  !
 ! D60   D(9,10,11,12)          -0.4289         calculate D2E/DX2 analytically  !
 ! D61   D(9,10,11,23)        -174.7668         calculate D2E/DX2 analytically  !
 ! D62   D(22,10,11,12)        174.4646         calculate D2E/DX2 analytically  !
 ! D63   D(22,10,11,23)          0.1267         calculate D2E/DX2 analytically  !
 ! D64   D(10,11,12,3)           9.2504         calculate D2E/DX2 analytically  !
 ! D65   D(10,11,12,13)       -156.5255         calculate D2E/DX2 analytically  !
 ! D66   D(23,11,12,3)        -176.4705         calculate D2E/DX2 analytically  !
 ! D67   D(23,11,12,13)         17.7536         calculate D2E/DX2 analytically  !
 ! D68   D(3,12,13,14)          -9.8162         calculate D2E/DX2 analytically  !
 ! D69   D(3,12,13,24)         175.6684         calculate D2E/DX2 analytically  !
 ! D70   D(11,12,13,14)        155.8955         calculate D2E/DX2 analytically  !
 ! D71   D(11,12,13,24)        -18.62           calculate D2E/DX2 analytically  !
 ! D72   D(12,13,14,15)          0.2693         calculate D2E/DX2 analytically  !
 ! D73   D(12,13,14,25)       -174.514          calculate D2E/DX2 analytically  !
 ! D74   D(24,13,14,15)        174.817          calculate D2E/DX2 analytically  !
 ! D75   D(24,13,14,25)          0.0338         calculate D2E/DX2 analytically  !
 ! D76   D(13,14,15,4)           9.5455         calculate D2E/DX2 analytically  !
 ! D77   D(13,14,15,16)       -156.9837         calculate D2E/DX2 analytically  !
 ! D78   D(25,14,15,4)        -175.703          calculate D2E/DX2 analytically  !
 ! D79   D(25,14,15,16)         17.7679         calculate D2E/DX2 analytically  !
 ! D80   D(4,15,16,17)          -9.7356         calculate D2E/DX2 analytically  !
 ! D81   D(4,15,16,26)         175.6061         calculate D2E/DX2 analytically  !
 ! D82   D(14,15,16,17)        156.8821         calculate D2E/DX2 analytically  !
 ! D83   D(14,15,16,26)        -17.7762         calculate D2E/DX2 analytically  !
 ! D84   D(15,16,17,18)          0.073          calculate D2E/DX2 analytically  !
 ! D85   D(15,16,17,27)       -174.5938         calculate D2E/DX2 analytically  !
 ! D86   D(26,16,17,18)        174.7733         calculate D2E/DX2 analytically  !
 ! D87   D(26,16,17,27)          0.1064         calculate D2E/DX2 analytically  !
 ! D88   D(16,17,18,5)           9.3177         calculate D2E/DX2 analytically  !
 ! D89   D(16,17,18,19)       -159.2825         calculate D2E/DX2 analytically  !
 ! D90   D(27,17,18,5)        -176.0525         calculate D2E/DX2 analytically  !
 ! D91   D(27,17,18,19)         15.3473         calculate D2E/DX2 analytically  !
 ! D92   D(5,18,19,20)         -10.7581         calculate D2E/DX2 analytically  !
 ! D93   D(5,18,19,28)         173.7862         calculate D2E/DX2 analytically  !
 ! D94   D(17,18,19,20)        157.7373         calculate D2E/DX2 analytically  !
 ! D95   D(17,18,19,28)        -17.7184         calculate D2E/DX2 analytically  !
 ! D96   D(18,19,20,6)          -0.2757         calculate D2E/DX2 analytically  !
 ! D97   D(18,19,20,29)       -176.0466         calculate D2E/DX2 analytically  !
 ! D98   D(28,19,20,6)         175.1854         calculate D2E/DX2 analytically  !
 ! D99   D(28,19,20,29)         -0.5854         calculate D2E/DX2 analytically  !
 --------------------------------------------------------------------------------
 Trust Radius=3.00D-01 FncErr=1.00D-07 GrdErr=1.00D-06 EigMax=2.50D+02 EigMin=1.00D-04
 Number of steps in this run=    180 maximum allowed number of steps=    180.
 Search for a saddle point of order  1.
 GradGradGradGradGradGradGradGradGradGradGradGradGradGradGradGradGradGrad

                          Input orientation:                          
 ---------------------------------------------------------------------
 Center     Atomic      Atomic             Coordinates (Angstroms)
 Number     Number       Type             X           Y           Z
 ---------------------------------------------------------------------
      1          6           0        0.343100   -1.154950   -0.561110
      2          6           0       -1.010540   -0.684790   -0.596230
      3          6           0       -0.956900    0.728260   -0.623380
      4          6           0        0.408580    1.119870   -0.625140
      5          6           0        1.207980   -0.052850   -0.607850
      6          6           0        0.757290   -2.415500   -0.059590
      7          6           0       -0.332760   -3.184100    0.270830
      8          6           0       -1.824020   -3.432850    0.231750
      9          6           0       -2.073900   -1.378140   -0.076000
     10          6           0       -3.213780   -0.585420    0.281440
     11          6           0       -3.158890    0.806920    0.262390
     12          6           0       -1.958330    1.524860   -0.106460
     13          6           0       -1.549570    2.873920    0.232120
     14          6           0       -0.216350    3.252380    0.233970
     15          6           0        0.839260    2.320490   -0.108200
     16          6           0        2.249380    2.344310    0.243890
     17          6           0        3.037280    1.198340    0.257910
     18          6           0        2.493660   -0.091780   -0.081340
     19          6           0        2.996870   -1.419670    0.250020
     20          6           0        2.181100   -2.527140    0.259940
     21          1           0       -2.309130   -4.091070   -0.511190
     22          1           0       -4.111610   -1.065790    0.653120
     23          1           0       -4.019400    1.360130    0.623640
     24          1           0       -2.293200    3.583420    0.577380
     25          1           0        0.043290    4.246190    0.581040
     26          1           0        2.689620    3.273410    0.591130
     27          1           0        4.058030    1.270640    0.614680
     28          1           0        4.027610   -1.526370    0.568100
     29          1           0        2.575020   -3.485960    0.572850
     30          1           0       -2.270880   -3.726320    1.192720
 ---------------------------------------------------------------------
                    Distance matrix (angstroms):
                    1          2          3          4          5
     1  C    0.000000
     2  C    1.433396   0.000000
     3  C    2.289183   1.414328   0.000000
     4  C    2.276663   2.295982   1.420527   0.000000
     5  C    1.401723   2.306797   2.301538   1.419370   0.000000
     6  C    1.418472   2.531514   3.624849   3.597261   2.466947
     7  C    2.294855   2.730884   4.061493   4.458307   3.598706
     8  C    3.242509   2.983142   4.335664   5.142570   4.617613
     9  C    2.475285   1.371899   2.446270   3.564311   3.579105
    10  C    3.699412   2.373699   2.763686   4.105045   4.541633
    11  C    4.097685   2.752787   2.374771   3.689511   4.534984
    12  C    3.561554   2.453718   1.380087   2.456687   3.572965
    13  C    4.521416   3.693391   2.384742   2.765129   4.107994
    14  C    4.513280   4.101375   2.766703   2.382479   3.696204
    15  C    3.539772   3.562533   2.454954   1.376300   2.453232
    16  C    4.065310   4.528612   3.693779   2.375502   2.748882
    17  C    3.669792   4.545391   4.117174   2.774166   2.379360
    18  C    2.446511   3.591127   3.587846   2.472119   1.389857
    19  C    2.787562   4.161192   4.583528   3.730203   2.409204
    20  C    2.436241   3.783364   4.607052   4.150407   2.796808
    21  H    3.956971   3.646411   5.006701   5.878165   5.355990
    22  H    4.618089   3.364918   3.847111   5.181040   5.560048
    23  H    5.173071   3.837059   3.366486   4.606971   5.553250
    24  H    5.540613   4.608708   3.373346   3.848993   5.185122
    25  H    5.528716   5.177942   3.850563   3.370784   4.609957
    26  H    5.142391   5.546923   4.609765   3.364549   3.833643
    27  H    4.589845   5.566005   5.193890   3.857249   3.371793
    28  H    3.871522   5.238977   5.598957   4.639373   3.391819
    29  H    3.420664   4.697823   5.627173   5.228988   3.879316
    30  H    4.064573   3.746959   4.986787   5.828351   5.370186
                    6          7          8          9         10
     6  C    0.000000
     7  C    1.374093   0.000000
     8  C    2.789810   1.512369   0.000000
     9  C    3.015298   2.532459   2.092602   0.000000
    10  C    4.385760   3.879887   3.168874   1.433700   0.000000
    11  C    5.081745   4.890330   4.445050   2.462965   1.393552
    12  C    4.785731   4.995911   4.971048   2.905459   2.485941
    13  C    5.777946   6.179137   6.312739   4.295332   3.839148
    14  C    5.758387   6.437638   6.875821   4.998829   4.869861
    15  C    4.736949   5.640727   6.348980   4.708227   5.002326
    16  C    4.997422   6.101761   7.068827   5.713993   6.199262
    17  C    4.284740   5.528392   6.714227   5.733577   6.500623
    18  C    2.900884   4.204178   5.468376   4.745246   5.740223
    19  C    2.470477   3.768300   5.224386   5.081409   6.266509
    20  C    1.463488   2.598309   4.106348   4.420190   5.733713
    21  H    3.523409   2.310885   1.104783   2.757664   3.706243
    22  H    5.102535   4.348918   3.318673   2.186651   1.083974
    23  H    6.126904   5.862236   5.286391   3.431121   2.133375
    24  H    6.760049   7.052420   7.040429   5.009199   4.279518
    25  H    6.730402   7.446264   7.910531   6.045435   5.834614
    26  H    6.043263   7.137003   8.091726   6.691271   7.059505
    27  H    4.993711   6.264342   7.541085   6.715180   7.512338
    28  H    3.446671   4.674320   6.163552   6.137203   7.307892
    29  H    2.202273   2.938966   4.412564   5.145519   6.481378
    30  H    3.529354   2.213638   1.099669   2.676266   3.403637
                   11         12         13         14         15
    11  C    0.000000
    12  C    1.446663   0.000000
    13  C    2.619793   1.449719   0.000000
    14  C    3.826176   2.476835   1.385897   0.000000
    15  C    4.291088   2.908529   2.475603   1.449073   0.000000
    16  C    5.622570   4.301054   3.835707   2.627644   1.453607
    17  C    6.208523   5.019512   4.883383   3.847826   2.494905
    18  C    5.733859   4.736494   5.024076   4.315899   2.925202
    19  C    6.546086   5.775062   6.253427   5.670370   4.332713
    20  C    6.295352   5.804122   6.564307   6.257099   5.043370
    21  H    5.030986   5.641413   7.045603   7.672109   7.154220
    22  H    2.137145   3.453266   4.718326   5.830551   6.046289
    23  H    1.084906   2.192759   2.923168   4.265635   5.006442
    24  H    2.925336   2.194868   1.084242   2.130921   3.446348
    25  H    4.709997   3.447430   2.131214   1.084218   2.194753
    26  H    6.355841   5.014728   4.273080   2.927912   2.195666
    27  H    7.240378   6.064755   5.844830   4.726792   3.461968
    28  H    7.561976   6.752519   7.111988   6.399945   5.041953
    29  H    7.169584   6.791247   7.587912   7.301494   6.098488
    30  H    4.712148   5.418528   6.708667   7.337748   6.923097
                   16         17         18         19         20
    16  C    0.000000
    17  C    1.390766   0.000000
    18  C    2.469814   1.440494   0.000000
    19  C    3.837489   2.618334   1.458188   0.000000
    20  C    4.871955   3.822597   2.478940   1.375525   0.000000
    21  H    7.922391   7.559992   6.264653   5.989111   4.816916
    22  H    7.229000   7.509268   6.716972   7.128689   6.472120
    23  H    6.356919   7.068003   6.710066   7.556118   7.327301
    24  H    4.720343   5.848477   6.070835   7.288547   7.580176
    25  H    2.932175   4.284598   5.026037   6.398061   7.109946
    26  H    1.085179   2.130216   3.437313   4.715481   5.832209
    27  H    2.135759   1.083717   2.188124   2.914928   4.251099
    28  H    4.271929   2.915650   2.198368   1.083967   2.122758
    29  H    5.848616   4.717578   3.457606   2.133479   1.082784
    30  H    7.627947   7.300870   6.126496   5.827393   4.704066
                   21         22         23         24         25
    21  H    0.000000
    22  H    3.709026   0.000000
    23  H    5.824813   2.427851   0.000000
    24  H    7.751325   4.992745   2.815124   0.000000
    25  H    8.731366   6.744295   4.983634   2.428675   0.000000
    26  H    8.968733   8.067790   6.976578   4.992473   2.819480
    27  H    8.399776   8.497258   8.077931   6.759324   4.997316
    28  H    6.920753   8.152684   8.549230   8.127895   7.014087
    29  H    5.039466   7.111588   8.183736   8.583456   8.136084
    30  H    1.742933   3.279920   5.408618   7.335628   8.324089
                   26         27         28         29         30
    26  H    0.000000
    27  H    2.425735   0.000000
    28  H    4.982834   2.797563   0.000000
    29  H    6.760366   4.982601   2.439269   0.000000
    30  H    8.600273   8.084482   6.700814   4.891294   0.000000
 Stoichiometry    C20H10(1+,2)
 Framework group  C1[X(C20H10)]
 Deg. of freedom    84
 Full point group                 C1      NOp   1
 Largest Abelian subgroup         C1      NOp   1
 Largest concise Abelian subgroup C1      NOp   1
                         Standard orientation:                         
 ---------------------------------------------------------------------
 Center     Atomic      Atomic             Coordinates (Angstroms)
 Number     Number       Type             X           Y           Z
 ---------------------------------------------------------------------
      1          6           0       -0.792359    0.860513    0.562864
      2          6           0       -1.066681   -0.545977    0.596896
      3          6           0        0.181693   -1.210276    0.621279
      4          6           0        1.206890   -0.226983    0.622437
      5          6           0        0.595260    1.053758    0.607546
      6          6           0       -1.674421    1.853001    0.063869
      7          6           0       -2.887486    1.297723   -0.265174
      8          6           0       -3.852394    0.133823   -0.225788
      9          6           0       -2.201593   -1.115822    0.077898
     10          6           0       -2.090254   -2.499340   -0.281235
     11          6           0       -0.859166   -3.152135   -0.264911
     12          6           0        0.365752   -2.475903    0.102675
     13          6           0        1.736811   -2.800678   -0.238502
     14          6           0        2.734413   -1.838651   -0.240933
     15          6           0        2.460380   -0.457965    0.103194
     16          6           0        3.189553    0.749264   -0.248770
     17          6           0        2.595266    2.006609   -0.260445
     18          6           0        1.207330    2.185176    0.081270
     19          6           0        0.312110    3.288288   -0.247422
     20          6           0       -1.055392    3.140151   -0.255268
     21          1           0       -4.664069    0.044735    0.518383
     22          1           0       -2.957590   -3.033383   -0.652081
     23          1           0       -0.814353   -4.173727   -0.627351
     24          1           0        1.975517   -3.799862   -0.585245
     25          1           0        3.723409   -2.113648   -0.589921
     26          1           0        4.213443    0.662909   -0.597780
     27          1           0        3.170518    2.852913   -0.617232
     28          1           0        0.737733    4.233205   -0.565166
     29          1           0       -1.686543    3.963171   -0.566247
     30          1           0       -4.332352   -0.103778   -1.186234
 ---------------------------------------------------------------------
 Rotational constants (GHZ):           0.5013907           0.4838114           0.2547659
 Standard basis: 6-31G(d) (6D, 7F)
 There are   320 symmetry adapted cartesian basis functions of A   symmetry.
 There are   320 symmetry adapted basis functions of A   symmetry.
   320 basis functions,   600 primitive gaussians,   320 cartesian basis functions
    65 alpha electrons       64 beta electrons
       nuclear repulsion energy      1365.8257590558 Hartrees.
 NAtoms=   30 NActive=   30 NUniq=   30 SFac= 1.00D+00 NAtFMM=   60 NAOKFM=F Big=F
 Integral buffers will be    131072 words long.
 Raffenetti 2 integral format.
 Two-electron integral symmetry is turned on.
 One-electron integrals computed using PRISM.
 NBasis=   320 RedAO= T EigKep=  3.10D-04  NBF=   320
 NBsUse=   320 1.00D-06 EigRej= -1.00D+00 NBFU=   320
 ExpMin= 1.61D-01 ExpMax= 3.05D+03 ExpMxC= 4.57D+02 IAcc=3 IRadAn=         5 AccDes= 0.00D+00
 Harris functional with IExCor= 1009 and IRadAn=       5 diagonalized for initial guess.
 HarFok:  IExCor= 1009 AccDes= 0.00D+00 IRadAn=         5 IDoV= 1 UseB2=F ITyADJ=14
 ICtDFT=  3500011 ScaDFX=  1.000000  1.000000  1.000000  1.000000
 FoFCou: FMM=F IPFlag=           0 FMFlag=      100000 FMFlg1=           0
         NFxFlg=           0 DoJE=T BraDBF=F KetDBF=T FulRan=T
         wScrn=  0.000000 ICntrl=       500 IOpCl=  0 I1Cent=   200000004 NGrid=           0
         NMat0=    1 NMatS0=      1 NMatT0=    0 NMatD0=    1 NMtDS0=    0 NMtDT0=    0
 Petite list used in FoFCou.
 Initial guess <Sx>= 0.0000 <Sy>= 0.0000 <Sz>= 0.5000 <S**2>= 0.7500 S= 0.5000
 Gradient too large for Newton-Raphson -- use scaled steepest descent instead.
     Minimum is close to point  2 DX=  2.23D-02 DF= -1.48D-03 DXR=  6.92D-02 DFR=  4.81D-03 which will be used.
 Gradient too large for Newton-Raphson -- use scaled steepest descent instead.
 Gradient too large for Newton-Raphson -- use scaled steepest descent instead.
 Gradient too large for Newton-Raphson -- use scaled steepest descent instead.
 Gradient too large for Newton-Raphson -- use scaled steepest descent instead.
     Accept linear search using points  1 and  2.
 Gradient too large for Newton-Raphson -- use scaled steepest descent instead.
     Minimum is close to point  4 DX=  1.87D-01 DF= -2.09D-05 DXR=  9.89D-02 DFR=  1.01D-02 which will be used.
 Gradient too large for Newton-Raphson -- use scaled steepest descent instead.
     Accept linear search using points  1 and  2.
 Restarting incremental Fock formation.
 Gradient too large for Newton-Raphson -- use scaled steepest descent instead.
     Accept linear search using points  2 and  3.
 Gradient too large for Newton-Raphson -- use scaled steepest descent instead.
     Accept linear search using points  1 and  2.
 Gradient too large for Newton-Raphson -- use scaled steepest descent instead.
 Gradient too large for Newton-Raphson -- use scaled steepest descent instead.
     Minimum is close to point  3 DX=  3.02D-02 DF= -5.68D-06 DXR=  7.02D-02 DFR=  4.95D-03 which will be used.
 Gradient too large for Newton-Raphson -- use scaled steepest descent instead.
     Accept linear search using points  4 and  5.
 Gradient too large for Newton-Raphson -- use scaled steepest descent instead.
 Gradient too large for Newton-Raphson -- use scaled steepest descent instead.
 Restarting incremental Fock formation.
     Accept linear search using points  3 and  4.
     Minimum is close to point  4 DX= -1.49D-01 DF= -5.06D-06 DXR=  3.86D-02 DFR=  2.38D-03 which will be used.
 Gradient too large for Newton-Raphson -- use scaled steepest descent instead.
 Gradient too large for Newton-Raphson -- use scaled steepest descent instead.
     Accept linear search using points  3 and  4.
     Minimum is close to point  4 DX= -2.51D-01 DF= -8.31D-06 DXR=  6.69D-02 DFR=  5.97D-03 which will be used.
 Gradient too large for Newton-Raphson -- use scaled steepest descent instead.
 LinEq1:  Iter=  0 NonCon=     1 RMS=1.93D-04 Max=3.03D-02 NDo=     1
 AX will form     1 AO Fock derivatives at one time.
 LinEq1:  Iter=  1 NonCon=     1 RMS=8.35D-05 Max=3.58D-03 NDo=     1
 LinEq1:  Iter=  2 NonCon=     1 RMS=4.00D-05 Max=1.96D-03 NDo=     1
 LinEq1:  Iter=  3 NonCon=     1 RMS=1.43D-05 Max=5.95D-04 NDo=     1
 LinEq1:  Iter=  4 NonCon=     1 RMS=9.99D-06 Max=3.58D-04 NDo=     1
 LinEq1:  Iter=  5 NonCon=     1 RMS=6.29D-06 Max=2.89D-04 NDo=     1
 LinEq1:  Iter=  6 NonCon=     1 RMS=4.48D-06 Max=2.19D-04 NDo=     1
 LinEq1:  Iter=  7 NonCon=     1 RMS=2.55D-06 Max=1.12D-04 NDo=     1
 LinEq1:  Iter=  8 NonCon=     1 RMS=2.04D-06 Max=8.11D-05 NDo=     1
 LinEq1:  Iter=  9 NonCon=     1 RMS=1.25D-06 Max=4.81D-05 NDo=     1
 LinEq1:  Iter= 10 NonCon=     1 RMS=7.64D-07 Max=3.73D-05 NDo=     1
 LinEq1:  Iter= 11 NonCon=     1 RMS=5.05D-07 Max=2.72D-05 NDo=     1
 LinEq1:  Iter= 12 NonCon=     1 RMS=3.18D-07 Max=1.82D-05 NDo=     1
 LinEq1:  Iter= 13 NonCon=     1 RMS=1.86D-07 Max=8.83D-06 NDo=     1
 LinEq1:  Iter= 14 NonCon=     1 RMS=9.14D-08 Max=4.41D-06 NDo=     1
 LinEq1:  Iter= 15 NonCon=     1 RMS=5.76D-08 Max=1.84D-06 NDo=     1
 LinEq1:  Iter= 16 NonCon=     1 RMS=3.77D-08 Max=1.33D-06 NDo=     1
 LinEq1:  Iter= 17 NonCon=     1 RMS=2.16D-08 Max=6.07D-07 NDo=     1
 LinEq1:  Iter= 18 NonCon=     1 RMS=1.30D-08 Max=4.20D-07 NDo=     1
 LinEq1:  Iter= 19 NonCon=     1 RMS=7.58D-09 Max=2.97D-07 NDo=     1
 LinEq1:  Iter= 20 NonCon=     0 RMS=4.09D-09 Max=1.42D-07 NDo=     1
 Linear equations converged to 1.815D-08 1.815D-07 after    20 iterations.
     Accept linear search using points  1 and  2.
 LinEq1:  Iter=  0 NonCon=     1 RMS=6.07D-05 Max=3.48D-03 NDo=     1
 LinEq1:  Iter=  1 NonCon=     1 RMS=4.88D-05 Max=2.14D-03 NDo=     1
 LinEq1:  Iter=  2 NonCon=     1 RMS=2.38D-05 Max=1.65D-03 NDo=     1
 LinEq1:  Iter=  3 NonCon=     1 RMS=2.24D-05 Max=2.33D-03 NDo=     1
 LinEq1:  Iter=  4 NonCon=     1 RMS=1.07D-05 Max=5.32D-04 NDo=     1
 LinEq1:  Iter=  5 NonCon=     1 RMS=7.34D-06 Max=2.75D-04 NDo=     1
 LinEq1:  Iter=  6 NonCon=     1 RMS=4.71D-06 Max=1.66D-04 NDo=     1
 LinEq1:  Iter=  7 NonCon=     1 RMS=3.49D-06 Max=1.59D-04 NDo=     1
 LinEq1:  Iter=  8 NonCon=     1 RMS=1.81D-06 Max=5.35D-05 NDo=     1
 LinEq1:  Iter=  9 NonCon=     1 RMS=1.43D-06 Max=6.12D-05 NDo=     1
 LinEq1:  Iter= 10 NonCon=     1 RMS=8.38D-07 Max=3.34D-05 NDo=     1
 LinEq1:  Iter= 11 NonCon=     1 RMS=6.20D-07 Max=2.61D-05 NDo=     1
 LinEq1:  Iter= 12 NonCon=     1 RMS=3.25D-07 Max=1.15D-05 NDo=     1
 LinEq1:  Iter= 13 NonCon=     1 RMS=1.58D-07 Max=5.91D-06 NDo=     1
 LinEq1:  Iter= 14 NonCon=     1 RMS=1.05D-07 Max=3.93D-06 NDo=     1
 LinEq1:  Iter= 15 NonCon=     1 RMS=4.93D-08 Max=2.08D-06 NDo=     1
 LinEq1:  Iter= 16 NonCon=     1 RMS=3.14D-08 Max=9.21D-07 NDo=     1
 LinEq1:  Iter= 17 NonCon=     1 RMS=1.77D-08 Max=9.00D-07 NDo=     1
 LinEq1:  Iter= 18 NonCon=     1 RMS=1.04D-08 Max=4.86D-07 NDo=     1
 LinEq1:  Iter= 19 NonCon=     1 RMS=6.70D-09 Max=2.76D-07 NDo=     1
 LinEq1:  Iter= 20 NonCon=     0 RMS=4.38D-09 Max=1.53D-07 NDo=     1
 Linear equations converged to 1.815D-08 1.815D-07 after    20 iterations.
     Minimum is close to point  2 DX=  3.74D-03 DF= -4.94D-10 DXR=  3.73D-03 DFR=  1.39D-05 which will be used.
 LinEq1:  Iter=  0 NonCon=     1 RMS=4.13D-07 Max=4.50D-05 NDo=     1
 LinEq1:  Iter=  1 NonCon=     1 RMS=3.60D-07 Max=3.26D-05 NDo=     1
 LinEq1:  Iter=  2 NonCon=     1 RMS=1.78D-07 Max=9.36D-06 NDo=     1
 LinEq1:  Iter=  3 NonCon=     1 RMS=1.20D-07 Max=4.35D-06 NDo=     1
 LinEq1:  Iter=  4 NonCon=     1 RMS=5.85D-08 Max=3.80D-06 NDo=     1
 LinEq1:  Iter=  5 NonCon=     1 RMS=4.38D-08 Max=2.58D-06 NDo=     1
 LinEq1:  Iter=  6 NonCon=     1 RMS=2.04D-08 Max=8.75D-07 NDo=     1
 LinEq1:  Iter=  7 NonCon=     1 RMS=1.30D-08 Max=4.77D-07 NDo=     1
 LinEq1:  Iter=  8 NonCon=     1 RMS=9.85D-09 Max=3.70D-07 NDo=     1
 LinEq1:  Iter=  9 NonCon=     1 RMS=5.76D-09 Max=2.31D-07 NDo=     1
 LinEq1:  Iter= 10 NonCon=     1 RMS=3.68D-09 Max=1.71D-07 NDo=     1
 LinEq1:  Iter= 11 NonCon=     1 RMS=2.12D-09 Max=8.38D-08 NDo=     1
 LinEq1:  Iter= 12 NonCon=     1 RMS=1.73D-09 Max=6.41D-08 NDo=     1
 LinEq1:  Iter= 13 NonCon=     1 RMS=8.84D-10 Max=2.90D-08 NDo=     1
 LinEq1:  Iter= 14 NonCon=     1 RMS=5.12D-10 Max=1.54D-08 NDo=     1
 LinEq1:  Iter= 15 NonCon=     1 RMS=3.22D-10 Max=1.35D-08 NDo=     1
 LinEq1:  Iter= 16 NonCon=     1 RMS=1.51D-10 Max=5.01D-09 NDo=     1
 LinEq1:  Iter= 17 NonCon=     1 RMS=1.10D-10 Max=4.27D-09 NDo=     1
 LinEq1:  Iter= 18 NonCon=     0 RMS=5.96D-11 Max=1.82D-09 NDo=     1
 Linear equations converged to 2.470D-10 2.470D-09 after    18 iterations.
 SCF Done:  E(UM062X) =  -767.398385103     a.u. after   21 cycles
            Convg  =    0.1736D-07                   115 Fock formations.
              S**2 =  0.8091                  -V/T =  2.0094
 <Sx>= 0.0000 <Sy>= 0.0000 <Sz>= 0.5000 <S**2>= 0.8091 S= 0.5291
 <L.S>=  0.00000000000    
 Annihilation of the first spin contaminant:
 S**2 before annihilation     0.8091,   after     0.7518
 DoSCS=F DFT=T ScalE2(SS,OS)=  1.000000  1.000000
 Range of M.O.s used for correlation:     1   320
 NBasis=   320 NAE=    65 NBE=    64 NFC=     0 NFV=     0
 NROrb=    320 NOA=    65 NOB=    64 NVA=   255 NVB=   256
 Symmetrizing basis deriv contribution to polar:
 IMax=3 JMax=2 DiffMx= 0.00D+00
 G2DrvN: will do    31 centers at a time, making    1 passes.
 Calling FoFCou, ICntrl=  3107 FMM=F I1Cent=   0 AccDes= 0.00D+00.
 End of G2Drv F.D. properties file   721 does not exist.
 End of G2Drv F.D. properties file   722 does not exist.
 End of G2Drv F.D. properties file   788 does not exist.
          IDoAtm=111111111111111111111111111111
          Differentiating once with respect to nuclear coordinates.
 CalDSu exits because no D1Ps are significant.
          There are    93 degrees of freedom in the 1st order CPHF.  IDoFFX=6 NUNeed=     0.
     87 vectors produced by pass  0 Test12= 3.54D-14 1.08D-09 XBig12= 2.41D-01 1.12D-01.
 AX will form    87 AO Fock derivatives at one time.
     87 vectors produced by pass  1 Test12= 3.54D-14 1.08D-09 XBig12= 6.32D-02 4.18D-02.
     87 vectors produced by pass  2 Test12= 3.54D-14 1.08D-09 XBig12= 2.83D-03 1.12D-02.
     87 vectors produced by pass  3 Test12= 3.54D-14 1.08D-09 XBig12= 7.70D-05 1.16D-03.
     87 vectors produced by pass  4 Test12= 3.54D-14 1.08D-09 XBig12= 7.85D-07 9.00D-05.
     87 vectors produced by pass  5 Test12= 3.54D-14 1.08D-09 XBig12= 5.99D-09 6.81D-06.
     87 vectors produced by pass  6 Test12= 3.54D-14 1.08D-09 XBig12= 3.90D-11 6.83D-07.
     61 vectors produced by pass  7 Test12= 3.54D-14 1.08D-09 XBig12= 2.35D-13 4.08D-08.
      5 vectors produced by pass  8 Test12= 3.54D-14 1.08D-09 XBig12= 1.44D-15 2.52D-09.
 InvSVY:  IOpt=1 It=  1 EMax= 6.66D-16
 Solved reduced A of dimension   675 with    93 vectors.
 End of Minotr F.D. properties file   721 does not exist.
 End of Minotr F.D. properties file   722 does not exist.
 End of Minotr F.D. properties file   788 does not exist.

 **********************************************************************

            Population analysis using the SCF Density.

 **********************************************************************

 Orbital symmetries:
 Alpha Orbitals:
       Occupied  (A) (A) (A) (A) (A) (A) (A) (A) (A) (A) (A) (A)
                 (A) (A) (A) (A) (A) (A) (A) (A) (A) (A) (A) (A)
                 (A) (A) (A) (A) (A) (A) (A) (A) (A) (A) (A) (A)
                 (A) (A) (A) (A) (A) (A) (A) (A) (A) (A) (A) (A)
                 (A) (A) (A) (A) (A) (A) (A) (A) (A) (A) (A) (A)
                 (A) (A) (A) (A) (A)
       Virtual   (A) (A) (A) (A) (A) (A) (A) (A) (A) (A) (A) (A)
                 (A) (A) (A) (A) (A) (A) (A) (A) (A) (A) (A) (A)
                 (A) (A) (A) (A) (A) (A) (A) (A) (A) (A) (A) (A)
                 (A) (A) (A) (A) (A) (A) (A) (A) (A) (A) (A) (A)
                 (A) (A) (A) (A) (A) (A) (A) (A) (A) (A) (A) (A)
                 (A) (A) (A) (A) (A) (A) (A) (A) (A) (A) (A) (A)
                 (A) (A) (A) (A) (A) (A) (A) (A) (A) (A) (A) (A)
                 (A) (A) (A) (A) (A) (A) (A) (A) (A) (A) (A) (A)
                 (A) (A) (A) (A) (A) (A) (A) (A) (A) (A) (A) (A)
                 (A) (A) (A) (A) (A) (A) (A) (A) (A) (A) (A) (A)
                 (A) (A) (A) (A) (A) (A) (A) (A) (A) (A) (A) (A)
                 (A) (A) (A) (A) (A) (A) (A) (A) (A) (A) (A) (A)
                 (A) (A) (A) (A) (A) (A) (A) (A) (A) (A) (A) (A)
                 (A) (A) (A) (A) (A) (A) (A) (A) (A) (A) (A) (A)
                 (A) (A) (A) (A) (A) (A) (A) (A) (A) (A) (A) (A)
                 (A) (A) (A) (A) (A) (A) (A) (A) (A) (A) (A) (A)
                 (A) (A) (A) (A) (A) (A) (A) (A) (A) (A) (A) (A)
                 (A) (A) (A) (A) (A) (A) (A) (A) (A) (A) (A) (A)
                 (A) (A) (A) (A) (A) (A) (A) (A) (A) (A) (A) (A)
                 (A) (A) (A) (A) (A) (A) (A) (A) (A) (A) (A) (A)
                 (A) (A) (A) (A) (A) (A) (A) (A) (A) (A) (A) (A)
                 (A) (A) (A)
 Beta  Orbitals:
       Occupied  (A) (A) (A) (A) (A) (A) (A) (A) (A) (A) (A) (A)
                 (A) (A) (A) (A) (A) (A) (A) (A) (A) (A) (A) (A)
                 (A) (A) (A) (A) (A) (A) (A) (A) (A) (A) (A) (A)
                 (A) (A) (A) (A) (A) (A) (A) (A) (A) (A) (A) (A)
                 (A) (A) (A) (A) (A) (A) (A) (A) (A) (A) (A) (A)
                 (A) (A) (A) (A)
       Virtual   (A) (A) (A) (A) (A) (A) (A) (A) (A) (A) (A) (A)
                 (A) (A) (A) (A) (A) (A) (A) (A) (A) (A) (A) (A)
                 (A) (A) (A) (A) (A) (A) (A) (A) (A) (A) (A) (A)
                 (A) (A) (A) (A) (A) (A) (A) (A) (A) (A) (A) (A)
                 (A) (A) (A) (A) (A) (A) (A) (A) (A) (A) (A) (A)
                 (A) (A) (A) (A) (A) (A) (A) (A) (A) (A) (A) (A)
                 (A) (A) (A) (A) (A) (A) (A) (A) (A) (A) (A) (A)
                 (A) (A) (A) (A) (A) (A) (A) (A) (A) (A) (A) (A)
                 (A) (A) (A) (A) (A) (A) (A) (A) (A) (A) (A) (A)
                 (A) (A) (A) (A) (A) (A) (A) (A) (A) (A) (A) (A)
                 (A) (A) (A) (A) (A) (A) (A) (A) (A) (A) (A) (A)
                 (A) (A) (A) (A) (A) (A) (A) (A) (A) (A) (A) (A)
                 (A) (A) (A) (A) (A) (A) (A) (A) (A) (A) (A) (A)
                 (A) (A) (A) (A) (A) (A) (A) (A) (A) (A) (A) (A)
                 (A) (A) (A) (A) (A) (A) (A) (A) (A) (A) (A) (A)
                 (A) (A) (A) (A) (A) (A) (A) (A) (A) (A) (A) (A)
                 (A) (A) (A) (A) (A) (A) (A) (A) (A) (A) (A) (A)
                 (A) (A) (A) (A) (A) (A) (A) (A) (A) (A) (A) (A)
                 (A) (A) (A) (A) (A) (A) (A) (A) (A) (A) (A) (A)
                 (A) (A) (A) (A) (A) (A) (A) (A) (A) (A) (A) (A)
                 (A) (A) (A) (A) (A) (A) (A) (A) (A) (A) (A) (A)
                 (A) (A) (A) (A)
 The electronic state is 2-A.
 Alpha  occ. eigenvalues --  -10.79259 -10.77499 -10.75269 -10.74719 -10.74439
 Alpha  occ. eigenvalues --  -10.73444 -10.72270 -10.71685 -10.71321 -10.70876
 Alpha  occ. eigenvalues --  -10.70804 -10.70464 -10.70444 -10.70434 -10.70187
 Alpha  occ. eigenvalues --  -10.70060 -10.69578 -10.69430 -10.69323 -10.69302
 Alpha  occ. eigenvalues --   -1.18087  -1.11559  -1.10455  -1.05635  -1.05000
 Alpha  occ. eigenvalues --   -1.03336  -0.98114  -0.96969  -0.95959  -0.95827
 Alpha  occ. eigenvalues --   -0.89605  -0.86361  -0.85150  -0.82566  -0.81575
 Alpha  occ. eigenvalues --   -0.80400  -0.74354  -0.72737  -0.71813  -0.71465
 Alpha  occ. eigenvalues --   -0.69456  -0.67827  -0.66452  -0.65382  -0.64293
 Alpha  occ. eigenvalues --   -0.63876  -0.63861  -0.63087  -0.62450  -0.61026
 Alpha  occ. eigenvalues --   -0.59878  -0.58439  -0.57011  -0.56816  -0.56377
 Alpha  occ. eigenvalues --   -0.54876  -0.53186  -0.52116  -0.50900  -0.50573
 Alpha  occ. eigenvalues --   -0.46873  -0.43013  -0.41541  -0.41410  -0.40670
 Alpha virt. eigenvalues --   -0.26292  -0.17139  -0.14039  -0.12253  -0.10401
 Alpha virt. eigenvalues --   -0.08572  -0.07861  -0.02715   0.00235   0.00646
 Alpha virt. eigenvalues --    0.03309   0.04125   0.05394   0.05537   0.06885
 Alpha virt. eigenvalues --    0.07245   0.07643   0.08756   0.09993   0.10303
 Alpha virt. eigenvalues --    0.11050   0.11737   0.12489   0.14574   0.16444
 Alpha virt. eigenvalues --    0.17059   0.17296   0.18703   0.19829   0.20979
 Alpha virt. eigenvalues --    0.22068   0.22797   0.25902   0.28400   0.29254
 Alpha virt. eigenvalues --    0.30252   0.33433   0.35314   0.37422   0.38323
 Alpha virt. eigenvalues --    0.38884   0.40691   0.41392   0.42271   0.43084
 Alpha virt. eigenvalues --    0.43270   0.43996   0.44279   0.45432   0.46182
 Alpha virt. eigenvalues --    0.46632   0.47288   0.47673   0.47893   0.49049
 Alpha virt. eigenvalues --    0.49436   0.49783   0.50191   0.50390   0.51137
 Alpha virt. eigenvalues --    0.51491   0.52303   0.52832   0.53192   0.53641
 Alpha virt. eigenvalues --    0.54045   0.54678   0.55877   0.56001   0.57416
 Alpha virt. eigenvalues --    0.58332   0.58697   0.60454   0.60480   0.62539
 Alpha virt. eigenvalues --    0.63273   0.64242   0.65141   0.65757   0.68684
 Alpha virt. eigenvalues --    0.69983   0.72113   0.73730   0.75514   0.76209
 Alpha virt. eigenvalues --    0.77268   0.77354   0.77842   0.78170   0.78716
 Alpha virt. eigenvalues --    0.79361   0.80364   0.81073   0.81559   0.83297
 Alpha virt. eigenvalues --    0.84183   0.84304   0.85174   0.86400   0.86831
 Alpha virt. eigenvalues --    0.87153   0.88060   0.88898   0.89280   0.89778
 Alpha virt. eigenvalues --    0.90399   0.92441   0.94734   0.96442   0.97192
 Alpha virt. eigenvalues --    0.98650   0.99684   0.99969   1.00541   1.02191
 Alpha virt. eigenvalues --    1.03556   1.04251   1.07483   1.09503   1.11110
 Alpha virt. eigenvalues --    1.13338   1.13640   1.16159   1.17759   1.18270
 Alpha virt. eigenvalues --    1.19884   1.20507   1.22948   1.23753   1.24675
 Alpha virt. eigenvalues --    1.28577   1.34516   1.35704   1.36970   1.38070
 Alpha virt. eigenvalues --    1.39288   1.39616   1.41681   1.42439   1.44101
 Alpha virt. eigenvalues --    1.46587   1.48347   1.50132   1.50160   1.52409
 Alpha virt. eigenvalues --    1.54041   1.55392   1.57540   1.59396   1.59967
 Alpha virt. eigenvalues --    1.61282   1.62199   1.64314   1.64533   1.66046
 Alpha virt. eigenvalues --    1.66221   1.67729   1.71346   1.73550   1.73721
 Alpha virt. eigenvalues --    1.77356   1.77647   1.80382   1.81743   1.82377
 Alpha virt. eigenvalues --    1.85230   1.85530   1.86330   1.87169   1.87989
 Alpha virt. eigenvalues --    1.89020   1.90438   1.91494   1.91674   1.93627
 Alpha virt. eigenvalues --    1.94615   1.96309   1.97778   1.98162   1.99244
 Alpha virt. eigenvalues --    2.01028   2.01918   2.03359   2.03892   2.06499
 Alpha virt. eigenvalues --    2.08746   2.10108   2.11156   2.11729   2.12789
 Alpha virt. eigenvalues --    2.13918   2.15218   2.15848   2.18828   2.19552
 Alpha virt. eigenvalues --    2.23211   2.24734   2.26521   2.27884   2.28960
 Alpha virt. eigenvalues --    2.30843   2.33133   2.34233   2.39486   2.42914
 Alpha virt. eigenvalues --    2.45144   2.45937   2.48390   2.49325   2.50216
 Alpha virt. eigenvalues --    2.52154   2.54718   2.56627   2.57958   2.60315
 Alpha virt. eigenvalues --    2.60749   2.63227   2.64575   2.64979   2.66038
 Alpha virt. eigenvalues --    2.69297   2.70699   2.72727   2.73728   2.76173
 Alpha virt. eigenvalues --    2.81618   2.82638   2.87421   2.87882   2.92813
 Alpha virt. eigenvalues --    3.07416   3.18405   3.20365   3.24256   3.41588
 Alpha virt. eigenvalues --    3.88596   3.93893   3.94136   3.96195   3.98006
 Alpha virt. eigenvalues --    3.98485   4.01649   4.05365   4.05667   4.06170
 Alpha virt. eigenvalues --    4.15157   4.20250   4.23322   4.28456   4.32830
 Alpha virt. eigenvalues --    4.34379   4.42232   4.47388   4.72256   4.79094
  Beta  occ. eigenvalues --  -10.78301 -10.77600 -10.74998 -10.74649 -10.74525
  Beta  occ. eigenvalues --  -10.73463 -10.72206 -10.71710 -10.71336 -10.70869
  Beta  occ. eigenvalues --  -10.70791 -10.70475 -10.70443 -10.70434 -10.70168
  Beta  occ. eigenvalues --  -10.70038 -10.69579 -10.69428 -10.69327 -10.69282
  Beta  occ. eigenvalues --   -1.17918  -1.11215  -1.10161  -1.05307  -1.04528
  Beta  occ. eigenvalues --   -1.02863  -0.97613  -0.96814  -0.95833  -0.95661
  Beta  occ. eigenvalues --   -0.89214  -0.86214  -0.84850  -0.82310  -0.81219
  Beta  occ. eigenvalues --   -0.79646  -0.74104  -0.72650  -0.71522  -0.71100
  Beta  occ. eigenvalues --   -0.68767  -0.67235  -0.65995  -0.65178  -0.64138
  Beta  occ. eigenvalues --   -0.63797  -0.63627  -0.62982  -0.62350  -0.60776
  Beta  occ. eigenvalues --   -0.59701  -0.58398  -0.56819  -0.56359  -0.54980
  Beta  occ. eigenvalues --   -0.54695  -0.52986  -0.51290  -0.50459  -0.50315
  Beta  occ. eigenvalues --   -0.46643  -0.42206  -0.41315  -0.41086
  Beta virt. eigenvalues --   -0.24190  -0.18795  -0.16801  -0.13833  -0.10978
  Beta virt. eigenvalues --   -0.09834  -0.08518  -0.07541  -0.02653   0.00634
  Beta virt. eigenvalues --    0.01145   0.03284   0.04143   0.05411   0.05550
  Beta virt. eigenvalues --    0.06977   0.07289   0.07991   0.09018   0.10225
  Beta virt. eigenvalues --    0.10385   0.11011   0.11768   0.12575   0.14605
  Beta virt. eigenvalues --    0.16498   0.17080   0.17504   0.18775   0.19977
  Beta virt. eigenvalues --    0.21077   0.22146   0.23087   0.26108   0.28663
  Beta virt. eigenvalues --    0.29515   0.30462   0.33644   0.35739   0.38047
  Beta virt. eigenvalues --    0.38525   0.39339   0.40817   0.41651   0.42377
  Beta virt. eigenvalues --    0.43150   0.43540   0.44029   0.44714   0.45511
  Beta virt. eigenvalues --    0.46219   0.46663   0.47380   0.47783   0.48032
  Beta virt. eigenvalues --    0.49156   0.49496   0.49865   0.50179   0.50487
  Beta virt. eigenvalues --    0.51154   0.51599   0.52452   0.52915   0.53422
  Beta virt. eigenvalues --    0.53993   0.54482   0.54969   0.55894   0.56169
  Beta virt. eigenvalues --    0.57876   0.58706   0.59130   0.60694   0.60736
  Beta virt. eigenvalues --    0.62594   0.63416   0.64470   0.65136   0.65951
  Beta virt. eigenvalues --    0.68618   0.69976   0.72156   0.73745   0.75208
  Beta virt. eigenvalues --    0.76229   0.77292   0.77421   0.77808   0.78186
  Beta virt. eigenvalues --    0.78813   0.79343   0.80365   0.81050   0.81893
  Beta virt. eigenvalues --    0.83332   0.84148   0.84317   0.85241   0.86375
  Beta virt. eigenvalues --    0.86797   0.87219   0.88187   0.89070   0.89338
  Beta virt. eigenvalues --    0.89855   0.90470   0.92642   0.94911   0.96663
  Beta virt. eigenvalues --    0.97249   0.98536   0.99790   1.00020   1.00565
  Beta virt. eigenvalues --    1.02362   1.03603   1.04322   1.07559   1.09682
  Beta virt. eigenvalues --    1.11277   1.13435   1.13662   1.16140   1.17711
  Beta virt. eigenvalues --    1.18293   1.19929   1.20499   1.23136   1.23850
  Beta virt. eigenvalues --    1.24899   1.28899   1.34875   1.36111   1.37208
  Beta virt. eigenvalues --    1.38132   1.39362   1.39645   1.41686   1.42540
  Beta virt. eigenvalues --    1.44160   1.46841   1.48525   1.50280   1.51378
  Beta virt. eigenvalues --    1.52545   1.54858   1.55876   1.58335   1.59992
  Beta virt. eigenvalues --    1.60474   1.61637   1.62358   1.64480   1.65054
  Beta virt. eigenvalues --    1.66498   1.67048   1.68292   1.71790   1.73713
  Beta virt. eigenvalues --    1.74280   1.77801   1.78539   1.80519   1.81994
  Beta virt. eigenvalues --    1.83450   1.85238   1.85534   1.86393   1.87207
  Beta virt. eigenvalues --    1.88137   1.89422   1.90740   1.91640   1.92089
  Beta virt. eigenvalues --    1.93501   1.94550   1.96313   1.98030   1.98364
  Beta virt. eigenvalues --    1.99185   2.01212   2.02079   2.03311   2.04281
  Beta virt. eigenvalues --    2.06619   2.08811   2.10235   2.11279   2.11880
  Beta virt. eigenvalues --    2.12947   2.13962   2.15323   2.16025   2.18879
  Beta virt. eigenvalues --    2.19757   2.23558   2.24726   2.26876   2.27984
  Beta virt. eigenvalues --    2.29500   2.31003   2.33509   2.34481   2.39791
  Beta virt. eigenvalues --    2.43478   2.45362   2.45914   2.48641   2.49445
  Beta virt. eigenvalues --    2.50306   2.52402   2.54967   2.56728   2.57970
  Beta virt. eigenvalues --    2.60463   2.60866   2.63328   2.64754   2.65050
  Beta virt. eigenvalues --    2.66151   2.69496   2.70793   2.73219   2.74240
  Beta virt. eigenvalues --    2.76141   2.81860   2.83662   2.87470   2.88883
  Beta virt. eigenvalues --    2.92856   3.07714   3.18549   3.20466   3.24264
  Beta virt. eigenvalues --    3.41631   3.90760   3.93914   3.94629   3.96905
  Beta virt. eigenvalues --    3.98137   3.98830   4.01946   4.05467   4.05774
  Beta virt. eigenvalues --    4.06177   4.15223   4.20376   4.23851   4.28948
  Beta virt. eigenvalues --    4.33621   4.34625   4.42381   4.47865   4.72454
  Beta virt. eigenvalues --    4.79116
          Condensed to atoms (all electrons):
               1          2          3          4          5          6
     1  C    5.050545   0.385826  -0.051536  -0.058385   0.423857   0.448376
     2  C    0.385826   5.031717   0.430798  -0.065510  -0.087048  -0.068886
     3  C   -0.051536   0.430798   5.009804   0.430842  -0.069417   0.008849
     4  C   -0.058385  -0.065510   0.430842   5.026257   0.402439   0.010051
     5  C    0.423857  -0.087048  -0.069417   0.402439   5.103335  -0.063083
     6  C    0.448376  -0.068886   0.008849   0.010051  -0.063083   4.840598
     7  C   -0.024274  -0.048497  -0.001217  -0.000462   0.013279   0.494167
     8  C   -0.010390  -0.027887   0.001316  -0.000008  -0.000141  -0.036973
     9  C   -0.053258   0.525325  -0.073669   0.005273   0.010343  -0.031682
    10  C    0.006003  -0.035977  -0.040058  -0.000236  -0.000097   0.000570
    11  C    0.000179  -0.046558  -0.036670   0.009736  -0.000047   0.000014
    12  C    0.007261  -0.061793   0.543126  -0.063947   0.008301   0.000009
    13  C   -0.000122   0.009171  -0.033962  -0.048298  -0.000288  -0.000004
    14  C    0.000058  -0.000261  -0.046751  -0.034859   0.008954  -0.000001
    15  C    0.007110   0.008298  -0.067192   0.549688  -0.064060   0.000021
    16  C   -0.001062   0.000006   0.009017  -0.026034  -0.049632   0.000061
    17  C    0.008438  -0.000102  -0.000105  -0.046068  -0.036034   0.000327
    18  C   -0.051085   0.008815   0.006566  -0.071919   0.507739  -0.027460
    19  C   -0.042606  -0.000302  -0.000133   0.008661  -0.032610  -0.026968
    20  C   -0.040538   0.007343  -0.000011  -0.000471  -0.042769   0.423751
    21  H    0.000089   0.000039  -0.000018   0.000000  -0.000001  -0.000412
    22  H   -0.000166   0.003359   0.000688   0.000009   0.000002  -0.000008
    23  H    0.000013   0.000354   0.004458  -0.000152   0.000002   0.000000
    24  H    0.000001  -0.000181   0.004177   0.000670   0.000015  -0.000000
    25  H    0.000001   0.000015   0.000681   0.004202  -0.000184  -0.000000
    26  H    0.000015   0.000002  -0.000168   0.004109   0.000639  -0.000000
    27  H   -0.000161   0.000001   0.000012   0.000473   0.004311   0.000002
    28  H    0.000564   0.000010   0.000001  -0.000150   0.003839   0.002459
    29  H    0.003667  -0.000105   0.000001   0.000011   0.000490  -0.032953
    30  H    0.000067   0.000137  -0.000002   0.000001   0.000011   0.000722
               7          8          9         10         11         12
     1  C   -0.024274  -0.010390  -0.053258   0.006003   0.000179   0.007261
     2  C   -0.048497  -0.027887   0.525325  -0.035977  -0.046558  -0.061793
     3  C   -0.001217   0.001316  -0.073669  -0.040058  -0.036670   0.543126
     4  C   -0.000462  -0.000008   0.005273  -0.000236   0.009736  -0.063947
     5  C    0.013279  -0.000141   0.010343  -0.000097  -0.000047   0.008301
     6  C    0.494167  -0.036973  -0.031682   0.000570   0.000014   0.000009
     7  C    5.184795   0.368495  -0.029305   0.001526  -0.000062   0.000059
     8  C    0.368495   5.173850   0.222771  -0.005784   0.001161   0.000131
     9  C   -0.029305   0.222771   5.007123   0.489292  -0.037257  -0.027806
    10  C    0.001526  -0.005784   0.489292   4.944361   0.545445  -0.023705
    11  C   -0.000062   0.001161  -0.037257   0.545445   4.994204   0.457479
    12  C    0.000059   0.000131  -0.027806  -0.023705   0.457479   4.711652
    13  C    0.000001   0.000002   0.000309   0.004012  -0.060512   0.447418
    14  C   -0.000001  -0.000000   0.000032  -0.000153   0.004190  -0.025166
    15  C    0.000003   0.000001   0.000052   0.000033   0.000316  -0.024300
    16  C    0.000005  -0.000000   0.000006   0.000001  -0.000006   0.000319
    17  C    0.000006  -0.000000  -0.000002  -0.000000   0.000001   0.000044
    18  C   -0.000606  -0.000007  -0.000002  -0.000001  -0.000001   0.000060
    19  C    0.004156  -0.000047   0.000011   0.000000  -0.000000  -0.000003
    20  C   -0.059358   0.002189  -0.000218  -0.000001   0.000000  -0.000002
    21  H   -0.015572   0.356293  -0.001885  -0.000264  -0.000007   0.000001
    22  H    0.000073  -0.001831  -0.032328   0.368935  -0.030195   0.002490
    23  H    0.000001  -0.000025   0.003481  -0.033431   0.364685  -0.033430
    24  H   -0.000000  -0.000000   0.000004  -0.000027  -0.002755  -0.033509
    25  H    0.000000   0.000000   0.000000   0.000001  -0.000102   0.002437
    26  H    0.000000   0.000000  -0.000000   0.000000  -0.000000   0.000006
    27  H   -0.000000   0.000000  -0.000000   0.000000   0.000000  -0.000000
    28  H   -0.000111   0.000000   0.000000   0.000000   0.000000  -0.000000
    29  H   -0.000375  -0.000016   0.000007  -0.000000  -0.000000  -0.000000
    30  H   -0.026513   0.361517  -0.012420   0.000138  -0.000015  -0.000003
              13         14         15         16         17         18
     1  C   -0.000122   0.000058   0.007110  -0.001062   0.008438  -0.051085
     2  C    0.009171  -0.000261   0.008298   0.000006  -0.000102   0.008815
     3  C   -0.033962  -0.046751  -0.067192   0.009017  -0.000105   0.006566
     4  C   -0.048298  -0.034859   0.549688  -0.026034  -0.046068  -0.071919
     5  C   -0.000288   0.008954  -0.064060  -0.049632  -0.036034   0.507739
     6  C   -0.000004  -0.000001   0.000021   0.000061   0.000327  -0.027460
     7  C    0.000001  -0.000001   0.000003   0.000005   0.000006  -0.000606
     8  C    0.000002  -0.000000   0.000001  -0.000000  -0.000000  -0.000007
     9  C    0.000309   0.000032   0.000052   0.000006  -0.000002  -0.000002
    10  C    0.004012  -0.000153   0.000033   0.000001  -0.000000  -0.000001
    11  C   -0.060512   0.004190   0.000316  -0.000006   0.000001  -0.000001
    12  C    0.447418  -0.025166  -0.024300   0.000319   0.000044   0.000060
    13  C    4.989933   0.559032  -0.024750   0.004273  -0.000163   0.000041
    14  C    0.559032   4.989376   0.454193  -0.060591   0.004072   0.000292
    15  C   -0.024750   0.454193   4.719699   0.431481  -0.028229  -0.021255
    16  C    0.004273  -0.060591   0.431481   4.996849   0.537986  -0.017752
    17  C   -0.000163   0.004072  -0.028229   0.537986   5.003442   0.466532
    18  C    0.000041   0.000292  -0.021255  -0.017752   0.466532   4.713044
    19  C    0.000000  -0.000001   0.000320   0.004651  -0.058183   0.426653
    20  C   -0.000000   0.000001   0.000017  -0.000230   0.004181  -0.019473
    21  H   -0.000000  -0.000000   0.000000   0.000000   0.000000  -0.000000
    22  H   -0.000093   0.000001  -0.000000   0.000000   0.000000  -0.000000
    23  H   -0.002608  -0.000022   0.000003  -0.000000  -0.000000  -0.000000
    24  H    0.366384  -0.030543   0.002417  -0.000103   0.000001  -0.000000
    25  H   -0.030179   0.366193  -0.033739  -0.002605  -0.000032   0.000008
    26  H   -0.000030  -0.002292  -0.031473   0.364100  -0.031285   0.002407
    27  H    0.000001  -0.000090   0.002409  -0.030061   0.368322  -0.033777
    28  H   -0.000000  -0.000000   0.000008  -0.000006  -0.002435  -0.031142
    29  H    0.000000   0.000000  -0.000000   0.000001  -0.000100   0.002383
    30  H   -0.000000   0.000000  -0.000000  -0.000000  -0.000000   0.000000
              19         20         21         22         23         24
     1  C   -0.042606  -0.040538   0.000089  -0.000166   0.000013   0.000001
     2  C   -0.000302   0.007343   0.000039   0.003359   0.000354  -0.000181
     3  C   -0.000133  -0.000011  -0.000018   0.000688   0.004458   0.004177
     4  C    0.008661  -0.000471   0.000000   0.000009  -0.000152   0.000670
     5  C   -0.032610  -0.042769  -0.000001   0.000002   0.000002   0.000015
     6  C   -0.026968   0.423751  -0.000412  -0.000008   0.000000  -0.000000
     7  C    0.004156  -0.059358  -0.015572   0.000073   0.000001  -0.000000
     8  C   -0.000047   0.002189   0.356293  -0.001831  -0.000025  -0.000000
     9  C    0.000011  -0.000218  -0.001885  -0.032328   0.003481   0.000004
    10  C    0.000000  -0.000001  -0.000264   0.368935  -0.033431  -0.000027
    11  C   -0.000000   0.000000  -0.000007  -0.030195   0.364685  -0.002755
    12  C   -0.000003  -0.000002   0.000001   0.002490  -0.033430  -0.033509
    13  C    0.000000  -0.000000  -0.000000  -0.000093  -0.002608   0.366384
    14  C   -0.000001   0.000001  -0.000000   0.000001  -0.000022  -0.030543
    15  C    0.000320   0.000017   0.000000  -0.000000   0.000003   0.002417
    16  C    0.004651  -0.000230   0.000000   0.000000  -0.000000  -0.000103
    17  C   -0.058183   0.004181   0.000000   0.000000  -0.000000   0.000001
    18  C    0.426653  -0.019473  -0.000000  -0.000000  -0.000000  -0.000000
    19  C    4.996923   0.564550   0.000000  -0.000000   0.000000   0.000000
    20  C    0.564550   4.971320  -0.000032  -0.000000   0.000000   0.000000
    21  H    0.000000  -0.000032   0.404318   0.000009   0.000000  -0.000000
    22  H   -0.000000  -0.000000   0.000009   0.478894  -0.004107  -0.000002
    23  H    0.000000   0.000000   0.000000  -0.004107   0.479493   0.002561
    24  H    0.000000   0.000000  -0.000000  -0.000002   0.002561   0.483584
    25  H   -0.000000  -0.000000  -0.000000  -0.000000  -0.000002  -0.003852
    26  H   -0.000099   0.000001   0.000000  -0.000000   0.000000  -0.000003
    27  H   -0.002843   0.000004  -0.000000  -0.000000  -0.000000  -0.000000
    28  H    0.365888  -0.029144  -0.000000  -0.000000  -0.000000  -0.000000
    29  H   -0.026369   0.367086   0.000001   0.000000  -0.000000  -0.000000
    30  H    0.000001  -0.000021  -0.028989   0.000336   0.000000   0.000000
              25         26         27         28         29         30
     1  C    0.000001   0.000015  -0.000161   0.000564   0.003667   0.000067
     2  C    0.000015   0.000002   0.000001   0.000010  -0.000105   0.000137
     3  C    0.000681  -0.000168   0.000012   0.000001   0.000001  -0.000002
     4  C    0.004202   0.004109   0.000473  -0.000150   0.000011   0.000001
     5  C   -0.000184   0.000639   0.004311   0.003839   0.000490   0.000011
     6  C   -0.000000  -0.000000   0.000002   0.002459  -0.032953   0.000722
     7  C    0.000000   0.000000  -0.000000  -0.000111  -0.000375  -0.026513
     8  C    0.000000   0.000000   0.000000   0.000000  -0.000016   0.361517
     9  C    0.000000  -0.000000  -0.000000   0.000000   0.000007  -0.012420
    10  C    0.000001   0.000000   0.000000   0.000000  -0.000000   0.000138
    11  C   -0.000102  -0.000000   0.000000   0.000000  -0.000000  -0.000015
    12  C    0.002437   0.000006  -0.000000  -0.000000  -0.000000  -0.000003
    13  C   -0.030179  -0.000030   0.000001  -0.000000   0.000000  -0.000000
    14  C    0.366193  -0.002292  -0.000090  -0.000000   0.000000   0.000000
    15  C   -0.033739  -0.031473   0.002409   0.000008  -0.000000  -0.000000
    16  C   -0.002605   0.364100  -0.030061  -0.000006   0.000001  -0.000000
    17  C   -0.000032  -0.031285   0.368322  -0.002435  -0.000100  -0.000000
    18  C    0.000008   0.002407  -0.033777  -0.031142   0.002383   0.000000
    19  C   -0.000000  -0.000099  -0.002843   0.365888  -0.026369   0.000001
    20  C   -0.000000   0.000001   0.000004  -0.029144   0.367086  -0.000021
    21  H   -0.000000   0.000000  -0.000000  -0.000000   0.000001  -0.028989
    22  H   -0.000000  -0.000000  -0.000000  -0.000000   0.000000   0.000336
    23  H   -0.000002   0.000000  -0.000000  -0.000000  -0.000000   0.000000
    24  H   -0.003852  -0.000003  -0.000000  -0.000000  -0.000000   0.000000
    25  H    0.484137   0.002540  -0.000002   0.000000  -0.000000  -0.000000
    26  H    0.002540   0.470760  -0.003665  -0.000003  -0.000000  -0.000000
    27  H   -0.000002  -0.003665   0.474070   0.002492  -0.000002   0.000000
    28  H    0.000000  -0.000003   0.002492   0.465445  -0.003507  -0.000000
    29  H   -0.000000  -0.000000  -0.000002  -0.003507   0.456908  -0.000003
    30  H   -0.000000  -0.000000   0.000000  -0.000000  -0.000003   0.434304
          Atomic-Atomic Spin Densities.
               1          2          3          4          5          6
     1  C    0.084556   0.006701  -0.002942   0.000300  -0.016564  -0.013750
     2  C    0.006701  -0.008079   0.005653   0.002558  -0.009723   0.005580
     3  C   -0.002942   0.005653   0.020417   0.000299  -0.003369   0.000015
     4  C    0.000300   0.002558   0.000299   0.001853  -0.008534   0.000061
     5  C   -0.016564  -0.009723  -0.003369  -0.008534   0.047336   0.001271
     6  C   -0.013750   0.005580   0.000015   0.000061   0.001271  -0.118970
     7  C   -0.020997  -0.019587  -0.000963  -0.000324   0.006062  -0.016697
     8  C   -0.000994   0.002878  -0.000005   0.000005   0.000013   0.000129
     9  C   -0.000151   0.004316  -0.004015  -0.000035   0.000355   0.005545
    10  C    0.000678  -0.001043  -0.000929  -0.000011   0.000090  -0.000105
    11  C   -0.000139   0.000239   0.000808   0.000088   0.000010   0.000002
    12  C   -0.000341   0.001400   0.000515   0.000104   0.000051  -0.000007
    13  C   -0.000008   0.000010  -0.000451  -0.000464  -0.000022   0.000000
    14  C    0.000011  -0.000005  -0.000114  -0.000445   0.000041   0.000000
    15  C   -0.000010   0.000060  -0.000162  -0.000065  -0.000055  -0.000008
    16  C   -0.000135  -0.000005  -0.000015   0.000905  -0.000167   0.000000
    17  C   -0.000112   0.000017   0.000017   0.000023   0.000288  -0.000038
    18  C    0.002370  -0.000193  -0.000041  -0.000484  -0.004977   0.000377
    19  C    0.002051  -0.000033  -0.000010  -0.000010   0.000027   0.000298
    20  C   -0.007679  -0.000219  -0.000004  -0.000092   0.001988   0.010601
    21  H   -0.000013   0.000082   0.000001   0.000000  -0.000004   0.000146
    22  H    0.000011  -0.000105  -0.000013   0.000000   0.000001  -0.000002
    23  H    0.000006  -0.000021   0.000012   0.000006   0.000001  -0.000000
    24  H    0.000000   0.000000   0.000019   0.000010   0.000000  -0.000000
    25  H    0.000000   0.000000   0.000005   0.000012  -0.000002   0.000000
    26  H   -0.000000   0.000000  -0.000000   0.000003   0.000000   0.000000
    27  H    0.000006   0.000000  -0.000000  -0.000003   0.000020  -0.000001
    28  H   -0.000146  -0.000002  -0.000000  -0.000005   0.000084   0.000141
    29  H    0.001046   0.000029   0.000001   0.000003  -0.000201  -0.001505
    30  H    0.000041  -0.000191  -0.000004  -0.000000   0.000005  -0.000458
               7          8          9         10         11         12
     1  C   -0.020997  -0.000994  -0.000151   0.000678  -0.000139  -0.000341
     2  C   -0.019587   0.002878   0.004316  -0.001043   0.000239   0.001400
     3  C   -0.000963  -0.000005  -0.004015  -0.000929   0.000808   0.000515
     4  C   -0.000324   0.000005  -0.000035  -0.000011   0.000088   0.000104
     5  C    0.006062   0.000013   0.000355   0.000090   0.000010   0.000051
     6  C   -0.016697   0.000129   0.005545  -0.000105   0.000002  -0.000007
     7  C    1.183328  -0.036637  -0.045677   0.001980  -0.000079  -0.000014
     8  C   -0.036637  -0.144389   0.002772  -0.001635  -0.000021  -0.000000
     9  C   -0.045677   0.002772   0.277468  -0.014157  -0.001903  -0.000938
    10  C    0.001980  -0.001635  -0.014157   0.013157  -0.001386   0.000579
    11  C   -0.000079  -0.000021  -0.001903  -0.001386   0.009544  -0.002169
    12  C   -0.000014  -0.000000  -0.000938   0.000579  -0.002169  -0.012292
    13  C   -0.000001  -0.000000  -0.000103  -0.000046  -0.000416   0.001384
    14  C   -0.000000   0.000000  -0.000006  -0.000003   0.000037   0.000459
    15  C   -0.000003  -0.000000  -0.000007  -0.000000  -0.000008  -0.000068
    16  C    0.000002  -0.000000   0.000002   0.000000  -0.000000  -0.000014
    17  C    0.000000   0.000000   0.000000  -0.000000  -0.000000  -0.000003
    18  C   -0.000165  -0.000001  -0.000006  -0.000000   0.000001   0.000014
    19  C    0.000238  -0.000004  -0.000001  -0.000000   0.000000   0.000001
    20  C   -0.008156   0.000034   0.000005  -0.000000   0.000000  -0.000000
    21  H   -0.001846   0.001113   0.002272  -0.000117   0.000003   0.000000
    22  H    0.000038  -0.000073  -0.001226   0.002351  -0.001118  -0.000066
    23  H    0.000002  -0.000000   0.000220   0.000061  -0.000857  -0.000645
    24  H    0.000000  -0.000000   0.000002   0.000001   0.000060  -0.000000
    25  H    0.000000  -0.000000   0.000000   0.000000   0.000001  -0.000004
    26  H    0.000000  -0.000000  -0.000000  -0.000000  -0.000000  -0.000000
    27  H   -0.000000  -0.000000  -0.000000  -0.000000   0.000000   0.000000
    28  H   -0.000010   0.000000  -0.000000   0.000000   0.000000   0.000000
    29  H    0.002874  -0.000055   0.000010  -0.000000   0.000000  -0.000000
    30  H   -0.008585   0.012309  -0.005477   0.000359  -0.000010  -0.000001
              13         14         15         16         17         18
     1  C   -0.000008   0.000011  -0.000010  -0.000135  -0.000112   0.002370
     2  C    0.000010  -0.000005   0.000060  -0.000005   0.000017  -0.000193
     3  C   -0.000451  -0.000114  -0.000162  -0.000015   0.000017  -0.000041
     4  C   -0.000464  -0.000445  -0.000065   0.000905   0.000023  -0.000484
     5  C   -0.000022   0.000041  -0.000055  -0.000167   0.000288  -0.004977
     6  C    0.000000   0.000000  -0.000008   0.000000  -0.000038   0.000377
     7  C   -0.000001  -0.000000  -0.000003   0.000002   0.000000  -0.000165
     8  C   -0.000000   0.000000  -0.000000  -0.000000   0.000000  -0.000001
     9  C   -0.000103  -0.000006  -0.000007   0.000002   0.000000  -0.000006
    10  C   -0.000046  -0.000003  -0.000000   0.000000  -0.000000  -0.000000
    11  C   -0.000416   0.000037  -0.000008  -0.000000  -0.000000   0.000001
    12  C    0.001384   0.000459  -0.000068  -0.000014  -0.000003   0.000014
    13  C    0.006358  -0.000572  -0.000056  -0.000010   0.000001  -0.000005
    14  C   -0.000572  -0.009650   0.000046   0.000547   0.000038  -0.000043
    15  C   -0.000056   0.000046   0.008851   0.000323   0.000075  -0.000054
    16  C   -0.000010   0.000547   0.000323  -0.041302  -0.004476   0.001698
    17  C    0.000001   0.000038   0.000075  -0.004476   0.014366   0.004935
    18  C   -0.000005  -0.000043  -0.000054   0.001698   0.004935  -0.027183
    19  C   -0.000000  -0.000001  -0.000007   0.000120   0.000405  -0.007060
    20  C    0.000000   0.000000   0.000002  -0.000004  -0.000012  -0.000304
    21  H    0.000000  -0.000000   0.000000   0.000000   0.000000  -0.000000
    22  H   -0.000002  -0.000000  -0.000000   0.000000  -0.000000  -0.000000
    23  H   -0.000141   0.000003  -0.000000   0.000000  -0.000000   0.000000
    24  H   -0.000205   0.000058   0.000004   0.000001  -0.000000   0.000000
    25  H   -0.000049   0.000007  -0.000009   0.000020  -0.000001   0.000001
    26  H   -0.000000   0.000016  -0.000053   0.000218  -0.000043  -0.000007
    27  H    0.000000   0.000000   0.000011   0.000088  -0.000154   0.000084
    28  H   -0.000000  -0.000000  -0.000000   0.000005   0.000061  -0.000431
    29  H    0.000000   0.000000   0.000000  -0.000000  -0.000001   0.000182
    30  H   -0.000000   0.000000  -0.000000   0.000000  -0.000000  -0.000000
[...]
 54,-0.00022401,0.00006210,0.00007851,-0.00022858,-0.00006183,-0.000103
 83,0.00003165,-0.00006915,0.00002809,0.00003293,0.00001249,0.00001778,
 0.00000405,0.00000493,0.00000052,-0.00002018,-0.00001856,-0.00003071,-
 0.00081119,-0.00035250,0.00012850,-0.14463998,0.20416729,-0.00010594,-
 0.00013339,0.00031752,0.00070729,0.00004242,0.00044098,-0.00166065,-0.
 00148537,0.00378667,0.00035519,0.00103663,-0.00021646,0.00043854,0.000
 02263,-0.00074829,0.00007146,0.00003456,-0.00025481,-0.00005300,-0.000
 08116,0.00002505,0.00000218,0.00006005,-0.00000360,-0.00045046,0.00019
 053,0.00006542,0.00021077,-0.00059274,-0.00024750,-0.00024565,0.001264
 75,-0.00208085,0.00402220,-0.00657587,0.00083998,0.05488191,-0.0541148
 7,-0.05814546,-0.00253917,-0.00070457,0.00457650,0.00039557,-0.0026818
 2,0.00845961,0.00001105,-0.00031239,0.00012522,0.00024538,0.00005814,-
 0.00050441,-0.00005144,0.00009655,0.00014074,-0.00000485,-0.00004718,0
 .00001951,0.00002684,0.00002752,-0.00002433,0.00000208,0.00000410,0.00
 000212,0.00002941,-0.00001504,0.00012115,-0.00010810,-0.00021778,0.000
 40465,-0.05579423,0.06223203,0.04808686,-0.00048470,0.00028980,-0.0000
 0734,0.00045081,0.00010199,-0.00009421,-0.00088919,0.00018419,0.000116
 13,-0.00384295,0.00333793,0.00056383,0.00087485,0.00087532,0.00054947,
 0.00000958,0.00004044,-0.00006364,0.00002926,-0.00005396,-0.00000763,0
 .00002763,0.00003375,-0.00001420,-0.00037025,0.00012776,0.00008233,-0.
 00032871,-0.00045687,0.00011023,0.00069100,-0.00110725,-0.00038892,-0.
 00529721,-0.00033012,0.00084683,-0.00447127,-0.02925846,-0.00840407,-0
 .07559440,-0.06403625,-0.01865918,0.01012210,0.02176991,0.00690895,0.0
 0187144,-0.00018418,0.00026674,-0.00013706,-0.00036014,-0.00012163,0.0
 0017254,0.00013351,0.00005561,-0.00003492,-0.00016134,-0.00000743,0.00
 006337,0.00007135,0.00000906,-0.00000204,-0.00000117,0.00000182,0.0000
 1210,-0.00014138,0.00000213,-0.00002456,-0.00000690,0.00000201,0.00076
 414,0.00000273,-0.00037077,0.07681074,0.00019521,-0.00022058,-0.000035
 49,-0.00008831,-0.00014222,0.00016487,0.00058753,0.00043000,0.00032499
 ,0.00329757,-0.00153784,-0.00102906,-0.00065728,-0.00006994,-0.0005877
 7,-0.00003534,-0.00001670,0.00010564,0.00001913,0.00003152,0.00001254,
 -0.00003486,-0.00003816,-0.00000859,0.00008465,0.00008927,-0.00002992,
 -0.00004950,0.00003251,0.00018689,0.00004996,0.00005434,-0.00008995,-0
 .00071482,0.00181976,-0.00235498,-0.00050210,-0.00264839,-0.00191589,-
 0.06595336,-0.31252715,-0.07871902,-0.00638965,-0.01260171,-0.00480257
 ,-0.00062337,0.00045621,0.00049119,0.00014016,0.00008525,0.00007235,-0
 .00002721,-0.00011530,0.00000790,0.00001276,0.00007574,0.00001280,-0.0
 0000779,-0.00005450,-0.00000026,0.00000222,0.00001244,0.00000246,0.000
 00660,-0.00000010,0.,-0.00002927,-0.00000007,-0.00004037,0.00019723,0.
 00028607,0.00192146,0.06971028,0.32692239,0.00017982,-0.00004216,0.000
 14785,-0.00028163,0.00002528,-0.00076620,-0.00095436,0.00046223,-0.000
 08551,0.00230826,-0.00025879,0.00410306,-0.00049219,-0.00034671,0.0004
 5851,0.00000879,-0.00006324,-0.00016338,-0.00002727,0.00006178,-0.0000
 0830,-0.00004762,0.00004791,0.00004094,-0.00018558,0.00001169,0.000110
 07,-0.00020807,-0.00015700,-0.00055185,0.00026680,-0.00028202,0.000117
 83,0.00045942,-0.00232575,0.00854171,0.00228605,-0.00009053,0.00407178
 ,-0.02213023,-0.07836303,-0.06043830,-0.00000837,-0.00769099,0.0004691
 9,-0.00019249,0.00118764,-0.00194945,0.00009390,-0.00050398,-0.0001983
 7,0.00020325,0.00039857,-0.00006002,-0.00004698,-0.00011870,0.00006567
 ,0.00009505,0.00005966,-0.00000923,0.00001122,-0.00003251,0.00001628,0
 .00000844,-0.00003061,0.00000891,0.00004132,-0.00001304,0.00015178,-0.
 00043968,0.00187612,-0.00536439,0.01887863,0.08633624,0.05083185,-0.00
 032912,-0.00054576,0.00030144,-0.00051264,-0.00018611,-0.00004962,0.00
 011565,-0.00130246,-0.00058781,-0.00610972,0.00024515,-0.00103606,-0.0
 0028481,0.00127695,0.00010547,0.00008299,0.00037265,-0.00007154,-0.000
 30702,-0.00022489,0.00001561,0.00014501,0.00000707,-0.00004008,0.00005
 227,-0.00000922,0.00000850,-0.00005924,-0.00002120,0.00006091,-0.00000
 724,0.00003313,0.00002388,0.00017951,-0.00030561,-0.00006903,0.0001832
 9,0.00045384,0.00013072,0.00146997,-0.00060211,0.00019946,-0.00617242,
 -0.02631692,-0.00896845,-0.11439815,-0.10918769,-0.03683252,0.01125079
 ,0.01730834,0.00464731,-0.00178187,0.00387945,-0.00227035,0.00082775,0
 .00044333,0.00035362,-0.00015128,0.00027546,0.00004215,0.00000819,-0.0
 0002648,0.00000460,0.00000072,0.00000392,-0.00000878,-0.00002846,-0.00
 001612,0.00000154,-0.00002473,0.00001226,-0.00001689,-0.00039794,0.000
 76609,0.00020741,0.11572076,-0.00032686,-0.00020796,0.00016256,0.00009
 745,-0.00008501,-0.00003499,0.00039139,0.00030424,0.00010631,0.0006454
 7,0.00077790,-0.00043855,0.00062023,0.00057344,0.00037468,0.00024391,0
 .00018916,-0.00002411,-0.00015085,-0.00008194,-0.00003995,0.00005585,0
 .00000869,-0.00002520,-0.00005886,0.00004108,-0.00002047,-0.00000114,-
 0.00004764,0.00004090,0.00002099,0.00000205,-0.00001011,-0.00012982,0.
 00005944,0.00004562,-0.00011708,-0.00011522,-0.00003627,-0.00039749,0.
 00071136,0.00055338,0.00162362,0.00508978,0.00025953,-0.10663574,-0.27
 474217,-0.07023178,-0.01121497,-0.01707147,-0.00722782,0.00352078,-0.0
 0249014,-0.00147525,-0.00091825,-0.00007418,-0.00012479,0.00009205,-0.
 00042007,0.00021850,0.00001180,-0.00002997,0.00001105,-0.00000183,-0.0
 0000070,-0.00000660,-0.00000280,0.,0.00000185,-0.00001068,0.00000519,-
 0.00002330,-0.00062471,-0.00027618,-0.00014273,0.11367870,0.28732904,-
 0.00053309,-0.00056170,-0.00101361,0.00056769,-0.00003139,0.00007931,0
 .00021702,-0.00037882,-0.00030019,-0.00143590,0.00067250,0.00386413,0.
 00134057,0.00076768,-0.00013017,0.00005012,0.00002163,0.00009666,0.000
 05438,-0.00004886,0.00021057,-0.00001430,0.00009925,0.00009881,-0.0005
 4185,-0.00002822,0.00021491,0.00020175,-0.00042154,-0.00022404,0.00028
 204,0.00027943,0.00004587,-0.00025589,0.00033486,0.00003810,-0.0003128
 3,-0.00027879,-0.00021791,0.00079517,0.00074782,-0.00189361,-0.0050336
 7,-0.00641228,0.00349009,-0.03366336,-0.07252908,-0.06462773,-0.002749
 57,0.00209402,0.00619330,-0.00275956,-0.00207315,0.00875330,0.00003644
 ,-0.00010603,-0.00059353,0.00007065,-0.00019930,-0.00058928,-0.0000383
 6,0.00012782,-0.00006081,0.00000536,-0.00000660,0.00001029,-0.00000434
 ,0.00000500,0.00000496,0.00000235,-0.00002619,0.00010798,-0.00024471,0
 .00001943,0.00033856,0.04240209,0.07702854,0.05089903,0.00033611,0.000
 60591,-0.00045365,-0.00030576,-0.00007270,0.00001042,-0.00006985,-0.00
 006055,0.00006458,0.00043489,-0.00000949,0.00043921,0.00035402,-0.0020
 5687,-0.00076808,-0.00015289,-0.00020673,0.00008038,0.00018060,0.00006
 428,0.00001024,-0.00006622,-0.00002356,0.00000541,0.00024094,0.0000178
 4,0.00001890,-0.00006051,0.00017759,0.00002639,-0.00011471,-0.00010291
 ,0.00001619,0.00012773,0.00007763,-0.00001776,-0.00013048,0.00013906,0
 .00019333,-0.00021140,-0.00037245,-0.00022653,0.00075957,0.00284865,-0
 .00164502,-0.01240004,-0.00197487,-0.00439242,-0.32999604,-0.02283751,
 -0.07815489,-0.00554168,0.00096164,-0.00217140,0.00048862,0.00002108,0
 .00064648,0.00006101,-0.00004055,0.00001311,0.00000274,0.00000840,0.00
 000797,-0.00001072,0.00000494,-0.00001521,0.00000055,0.00000170,-0.000
 00340,-0.00004660,-0.00003079,0.00000227,-0.00001203,0.00002951,-0.000
 02556,0.00044469,-0.00034460,0.00157638,0.34589945,-0.00066128,0.00089
 970,-0.00079261,-0.00066481,-0.00031587,0.00018176,-0.00038637,0.00009
 165,0.00005173,0.00024100,-0.00085008,0.00008189,-0.00160348,-0.005896
 07,-0.00106706,-0.00026238,-0.00004714,0.00006306,0.00027061,0.0001563
 7,-0.00001672,-0.00010350,-0.00003900,0.00003340,0.00035339,0.00008984
 ,-0.00002963,-0.00015028,0.00032377,0.00003720,-0.00022965,-0.00018892
 ,0.00006337,0.00016355,-0.00016926,-0.00008056,0.00032078,-0.00033740,
 -0.00005552,0.00080435,0.00100535,0.00039656,0.00233108,-0.00423090,-0
 .00193513,0.02698635,0.00462313,0.00717739,-0.02414723,-0.06058546,-0.
 00847966,-0.02787912,0.00242177,-0.00805333,-0.00048643,0.00172587,0.0
 0007701,0.00047490,0.00006455,0.00008202,0.00000040,0.00002461,0.00000
 292,-0.00001802,0.00001920,-0.00000818,0.00000062,-0.00000163,-0.00000
 903,0.00013129,0.00006534,-0.00001563,0.00000385,-0.00000794,-0.000025
 70,-0.00010210,0.00060659,0.00103940,0.02391387,0.06101251,-0.00116511
 ,0.00011751,0.00060953,0.00050964,-0.00025316,0.00008830,0.00020059,0.
 00019603,-0.00062588,0.00024905,0.00086969,-0.00044718,0.00017126,-0.0
 0171806,0.00450607,0.00030154,0.00012043,-0.00012627,-0.00005242,-0.00
 010476,0.00007208,0.00005167,0.00002020,-0.00003981,-0.00055183,0.0000
 5542,-0.00012202,0.00019804,-0.00038378,-0.00009357,0.00026829,0.00032
 243,-0.00005315,-0.00032585,0.00003553,0.00021676,-0.00012277,0.000220
 57,-0.00049299,-0.00024273,-0.00030550,0.00011031,-0.00156687,-0.00165
 446,0.00814031,0.00156564,-0.00199263,0.00380291,-0.07911668,-0.005065
 19,-0.05807436,-0.00761352,-0.00283335,0.00027911,0.00119640,0.0007016
 9,-0.00236888,-0.00035349,-0.00026177,-0.00008326,0.00001752,-0.000025
 40,0.00000630,0.00001777,-0.00000669,0.00007528,0.00000811,-0.00000074
 ,0.00001594,-0.00001626,-0.00001377,0.00001838,-0.00000145,-0.00003404
 ,0.00012378,0.00150249,0.00110501,-0.00509631,0.08487972,0.01110516,0.
 04907395,0.00064137,0.00034674,0.00018844,-0.00012856,0.00003197,0.000
 11817,-0.00008793,0.00012037,-0.00006932,-0.00011877,-0.00034847,-0.00
 022086,0.00042824,0.00142774,-0.00040193,0.00092105,-0.00251780,-0.001
 82117,-0.00039895,-0.00002780,-0.00025588,-0.00005658,0.00005896,0.000
 29912,0.00006658,0.00001909,-0.00001283,-0.00001790,0.00000695,0.00002
 513,-0.00000275,0.00000805,0.00000659,0.00000597,-0.00003645,0.0000437
 9,-0.00001898,-0.00000194,0.00000989,0.00002609,0.00000406,0.00001783,
 -0.00004912,0.00002701,0.00002544,-0.00000018,0.00006512,-0.00000974,0
 .00061417,-0.00012206,0.00051158,-0.00528782,-0.00063804,-0.00226198,-
 0.33401792,0.02614004,-0.07006118,-0.01249734,0.00215834,-0.00404124,0
 .00003051,0.00004385,-0.00002135,-0.00000180,0.00000195,0.00000031,-0.
 00001027,0.00000029,-0.00001619,-0.00000101,0.00000313,-0.00000508,-0.
 00000512,0.00000844,0.00000087,0.00000927,0.00001649,-0.00002799,-0.00
 022028,0.00068971,-0.00000618,0.34970703,-0.00057315,-0.00150053,0.000
 17467,0.00017562,0.00020529,-0.00012220,0.00023491,-0.00047326,0.00004
 116,0.00126661,0.00056020,0.00061825,0.00172500,-0.00528825,0.00054110
 ,-0.00211436,-0.00379905,0.00136437,-0.00148707,0.00065644,-0.00021880
 ,-0.00030055,-0.00010744,0.00001942,-0.00008040,-0.00034255,0.00002555
 ,0.00008122,0.00003008,-0.00003243,0.00004004,-0.00001443,-0.00004127,
 0.00003009,0.00008151,-0.00005027,0.00008130,0.00003515,0.00000762,-0.
 00014239,-0.00001053,-0.00003697,0.00026383,0.00022191,0.00007777,-0.0
 0044121,0.00004056,-0.00010571,0.00026240,0.00181112,0.00009750,0.0279
 8246,0.00236826,0.00747198,0.02819703,-0.06129092,0.00769522,-0.026857
 62,0.00549197,-0.00619196,-0.00003734,-0.00003602,0.00004157,0.0000073
 7,-0.00000491,0.00000820,0.00002206,0.00002043,0.00000939,-0.00000295,
 -0.00000300,0.00000344,0.00002238,-0.00001854,-0.00000677,-0.00001206,
 -0.00002192,0.00000132,-0.00071156,-0.00041395,-0.00025758,-0.02771219
 ,0.06114244,0.00018270,-0.00057543,-0.00033249,0.00000998,-0.00003820,
 -0.00066147,-0.00012970,0.00013156,0.00023557,-0.00026760,-0.00019515,
 0.00014866,0.00037875,0.00151479,0.00393101,-0.00183777,0.00099437,0.0
 0921139,-0.00017404,0.00064214,0.00076087,-0.00013870,-0.00040129,-0.0
 0097591,-0.00005051,-0.00021578,0.00005998,-0.00003529,0.00014216,-0.0
 0007480,-0.00008660,-0.00013726,0.00000851,0.00008899,0.00002987,-0.00
 018717,0.00005549,0.00006157,-0.00002564,-0.00012274,0.00000037,0.0000
 7189,0.00032799,-0.00001840,-0.00006770,-0.00044780,0.00026034,-0.0001
 9322,0.00098700,-0.00065958,-0.00194193,-0.00651276,0.00288474,0.00164
 639,-0.07106868,0.00445399,-0.05596482,0.00107364,0.00212819,0.0045926
 7,-0.00010587,-0.00017963,0.00014558,0.00000546,-0.00000762,-0.0000042
 9,0.00002054,-0.00000317,0.00007732,0.00000039,-0.00000320,-0.00000172
 ,-0.00000547,0.00000288,0.00000432,-0.00002485,-0.00001596,0.00011844,
 -0.00006076,0.00019294,0.00033950,0.07646264,-0.01025040,0.04484149,-0
 .00613411,-0.00133510,-0.00051965,0.00027174,0.00067085,-0.00075587,-0
 .00056829,0.00001520,0.00008190,0.00033257,-0.00023163,0.00005339,0.00
 035105,0.00027262,0.00027304,-0.00848401,0.02665767,-0.00656465,0.0022
 3797,0.00040786,-0.00004837,-0.00074310,0.00012437,0.00005309,0.000295
 69,-0.00016146,-0.00007601,-0.00006624,0.00002942,0.00009770,-0.000021
 45,-0.00003674,0.00000166,0.00011198,-0.00007925,0.00005498,0.00011465
 ,0.00007861,0.00001419,-0.00011075,0.00009319,0.00002517,0.00031224,0.
 00013031,0.00008851,-0.00052164,-0.00014965,-0.00005913,0.00094044,-0.
 00072979,0.00035557,-0.00273566,-0.00300253,-0.00238532,0.01157959,-0.
 01867759,0.00412247,-0.10422601,0.10651369,-0.02852215,-0.00005170,0.0
 0002639,0.00001562,-0.00001261,0.00001748,0.00000732,-0.00000393,0.000
 00108,-0.00001844,0.00000904,0.00001847,-0.00000342,0.00000134,-0.0000
 0205,-0.00000675,0.00007851,-0.00007559,-0.00003749,0.00000623,0.00000
 211,-0.00002048,0.00050175,0.00011317,0.00137061,0.10657504,-0.0007415
 9,0.00077099,0.00008684,-0.00023044,0.00027744,0.00021664,-0.00003782,
 0.00002572,-0.00001825,-0.00001140,0.00019019,0.00002109,-0.00055865,0
 .00005023,-0.00029891,-0.00179394,0.00441769,-0.00094809,0.00106799,-0
 .00010219,-0.00011439,-0.00036417,0.00022110,-0.00005510,0.00027904,0.
 00009904,0.00002723,-0.00004448,-0.00011840,-0.00002540,0.00005540,0.0
 0005327,-0.00001721,-0.00006864,0.00006164,-0.00001454,-0.00003906,-0.
 00000977,-0.00000403,0.00003029,-0.00001538,0.00000388,-0.00020298,-0.
 00003078,-0.00005578,-0.00004372,-0.00036805,-0.00018151,0.00083840,-0
 .00000132,0.00017844,-0.00343596,-0.00212478,0.00100148,0.01031893,-0.
 01631241,0.00547162,0.10526932,-0.29656334,0.06085275,0.00001235,-0.00
 003693,0.00000686,-0.00000565,0.00000769,0.00000318,0.00000073,-0.0000
 1105,0.00000872,0.00000373,-0.00000142,0.00000837,-0.00000288,0.000001
 50,0.00000082,0.00007089,-0.00006953,0.00002239,-0.00002196,-0.0000185
 3,0.00001392,0.00030919,0.00069501,-0.00093484,-0.11066795,0.30888494,
 -0.00141600,-0.00118352,0.00271380,0.00028442,0.00059242,0.00132067,-0
 .00019853,0.00006691,0.00003534,0.00030795,0.00014647,-0.00049696,0.00
 098395,0.00048174,-0.00048279,-0.00314803,0.00421270,0.00024678,0.0003
 6407,-0.00023471,-0.00119760,-0.00023784,-0.00004790,-0.00008668,0.000
 02599,-0.00036531,0.00015300,-0.00003421,0.00009832,-0.00016907,-0.000
 05362,-0.00010385,-0.00003723,0.00006518,0.00013977,-0.00019520,-0.000
 00317,-0.00002450,-0.00004206,0.00003469,-0.00001329,-0.00000667,0.000
 06904,0.00004929,0.00009017,0.00010432,0.00020702,-0.00057372,-0.00006
 441,0.00015447,-0.00054392,-0.00216046,0.00131978,0.00931057,-0.001661
 24,-0.00198027,0.00576492,-0.02714042,0.06266671,-0.05171410,0.0000352
 6,-0.00020684,0.00009918,0.00000821,0.00000090,0.00002260,0.00001229,0
 .00001307,0.00003437,0.00000623,-0.00001258,0.00005108,0.00000078,-0.0
 0000570,-0.00000213,-0.00004261,-0.00003117,0.00017376,-0.00003965,-0.
 00000281,0.00014472,0.00153952,-0.00088150,-0.00575480,0.03240488,-0.0
 6525049,0.04122363,-0.00063912,0.00092764,-0.00113294,0.00101839,0.000
 04822,0.00013305,0.00024723,0.00006830,0.00021884,0.00001663,0.0000322
 5,0.00012416,-0.00011618,0.00019636,0.00063846,-0.00171056,-0.00026874
 ,-0.00248881,-0.01883140,-0.00266461,0.02806653,-0.08086254,-0.0038575
 3,0.10837931,-0.00098843,0.00219982,-0.00308646,0.00038206,0.00075376,
 0.00035229,-0.00041693,-0.00029893,0.00020869,0.00039451,0.00008949,-0
 .00007352,-0.00012070,-0.00006284,0.00001465,0.00011083,0.00002012,0.0
 0001169,0.00010016,0.00010585,-0.00015804,-0.00027797,0.00022878,-0.00
 001766,0.00010238,-0.00045648,-0.00014359,-0.00023327,0.00077769,-0.00
 012879,-0.00028828,-0.00055203,0.00023179,0.00043994,-0.00048708,-0.00
 064619,0.00907419,0.00009409,-0.01440491,-0.00020722,0.00007917,-0.000
 08793,-0.00001666,0.00006660,-0.00008234,0.00000199,0.00000455,0.00000
 749,-0.00000855,0.00000757,-0.00000246,-0.00000473,-0.00000745,0.00005
 090,0.00000206,0.00000680,0.00001792,-0.00003075,-0.00003263,0.0001049
 6,-0.00004034,0.00001503,-0.00004660,0.09290325,0.00003483,0.00091782,
 0.00452968,-0.00142127,0.00067868,-0.00050484,-0.00034332,-0.00003538,
 -0.00067087,-0.00027014,-0.00032499,-0.00049612,0.00014505,-0.00046446
 ,-0.00185248,-0.00182292,0.00293454,0.00180314,0.01524627,0.00018839,-
 0.00346857,-0.02634148,-0.01467077,0.00109280,0.00589846,-0.01352721,0
 .00927893,-0.00096536,-0.00076222,-0.00081638,0.00036509,-0.00014011,-
 0.00054280,-0.00015543,-0.00004356,0.00010950,0.00012660,-0.00003154,-
 0.00007226,-0.00005696,0.00000403,-0.00001841,0.00007462,-0.00004194,0
 .00059748,-0.00014819,0.00004586,-0.00001606,-0.00012617,-0.00022409,0
 .00024782,0.00053766,-0.00026946,-0.00005166,-0.00014640,0.00049433,-0
 .00010741,0.00001388,-0.00105775,-0.00212124,0.00611457,0.00362148,-0.
 01341553,0.00028666,0.00001720,0.00024841,0.00004313,-0.00013664,0.000
 21653,0.00000347,0.00000649,-0.00000205,0.00002046,-0.00002168,0.00002
 632,0.00003152,0.00003613,-0.00015909,-0.00000497,-0.00002810,0.000027
 30,-0.00008276,-0.00003506,0.00019602,-0.00002314,0.00002742,0.0001948
 7,0.00296625,0.02284258,-0.00009511,0.00156356,-0.00056304,-0.00054141
 ,0.00012568,-0.00027227,-0.00018845,-0.00014823,-0.00013947,0.00005677
 ,0.00022982,0.00009124,-0.00068900,-0.00044058,0.00020934,-0.00254421,
 -0.00453755,-0.00126256,0.00509593,0.00294270,0.00126056,0.10532918,-0
 .00859908,-0.28938652,-0.00033437,0.00287377,-0.00156290,0.00006478,-0
 .00063006,-0.00021679,0.00021548,0.00038938,0.00004309,-0.00004808,-0.
 00002054,0.00000733,-0.00002606,-0.00000871,0.00000627,0.00006027,0.00
 003286,0.00000479,-0.00041835,-0.00007608,-0.00007067,0.00007233,-0.00
 007580,-0.00001277,0.00014743,-0.00020017,-0.00004328,0.00018532,0.000
 22846,0.00018489,-0.00004176,-0.00057318,0.00014922,0.00099079,0.00024
 255,0.00018791,0.00880421,0.00091510,-0.01370091,-0.00001255,0.0000857
 2,-0.00000474,-0.00000463,-0.00003161,0.00002341,0.00000994,-0.0000054
 8,0.00000242,-0.00000389,-0.00000803,-0.00000494,0.00001139,0.00000115
 ,0.00000908,-0.00001665,-0.00001425,0.00000043,-0.00001644,-0.00000266
 ,-0.00000764,-0.00000236,-0.00000569,-0.00008163,-0.11606049,0.0057469
 8,0.30515015\\0.00000035,-0.00000014,-0.00000015,0.00000020,-0.0000003
 4,0.00000039,-0.00000017,-0.00000026,-0.00000004,-0.00000018,-0.000000
 07,-0.00000008,-0.00000002,0.00000003,0.00000009,0.00000068,0.00000011
 ,0.00000058,-0.00000054,-0.00000019,0.00000037,0.00000136,-0.00000035,
 0.00000077,-0.00000034,0.00000005,0.00000014,0.00000005,-0.00000041,-0
 .00000012,-0.00000003,-0.00000040,-0.00000005,-0.00000036,-0.00000026,
 -0.00000034,-0.00000033,-0.00000017,-0.00000051,-0.00000049,0.,-0.0000
 0058,-0.00000026,0.00000010,-0.00000030,-0.00000030,0.00000028,-0.0000
 0041,-0.00000017,0.00000048,-0.00000031,0.00000012,0.00000025,0.000000
 12,0.00000018,0.00000045,0.00000005,0.00000033,0.00000034,0.00000036,0
 .00000048,-0.00000028,0.00000057,0.00000012,-0.00000053,0.00000015,-0.
 00000019,-0.00000050,-0.00000020,-0.00000048,-0.00000023,-0.00000064,-
 0.00000057,0.00000008,-0.00000070,-0.00000042,0.00000043,-0.00000057,-
 0.00000018,0.00000061,-0.00000017,0.00000020,0.00000059,0.00000026,0.0
 0000044,0.00000043,0.00000075,0.00000053,-0.00000008,0.00000060\\\@
 The archive entry for this job was punched.


 WE DON'T KNOW ONE MILLIONTH OF ONE PERCENT ABOUT
 ANYTHING.
                                     T. A. EDISON.
 Job cpu time:       0 days  2 hours 10 minutes 25.9 seconds.
 Elapsed time:       0 days  0 hours  8 minutes 22.8 seconds.
 File lengths (MBytes):  RWF=   1344 Int=      0 D2E=      0 Chk=     20 Scr=     32
 Normal termination of Gaussian 16 at Tue Aug 15 17:17:53 2023.
