 Entering Gaussian System, Link 0=g16
 Initial command:
 /sw/arch/RHEL8/EB_production/2022/software/Gaussian/g16.c02/l1.exe "/scratch-local/calessandra.3103421/calessandra/Gau-2073640.inp" -scrdir="/scratch-local/calessandra.3103421/calessandra/"
 Entering Link 1 = /sw/arch/RHEL8/EB_production/2022/software/Gaussian/g16.c02/l1.exe PID=   2073644.
  
 Copyright (c) 1988-2021, Gaussian, Inc.  All Rights Reserved.
  
 This is part of the Gaussian(R) 16 program.  It is based on
 the Gaussian(R) 09 system (copyright 2009, Gaussian, Inc.),
 the Gaussian(R) 03 system (copyright 2003, Gaussian, Inc.),
 the Gaussian(R) 98 system (copyright 1998, Gaussian, Inc.),
 the Gaussian(R) 94 system (copyright 1995, Gaussian, Inc.),
 the Gaussian 92(TM) system (copyright 1992, Gaussian, Inc.),
 the Gaussian 90(TM) system (copyright 1990, Gaussian, Inc.),
 the Gaussian 88(TM) system (copyright 1988, Gaussian, Inc.),
 the Gaussian 86(TM) system (copyright 1986, Carnegie Mellon
 University), and the Gaussian 82(TM) system (copyright 1983,
 Carnegie Mellon University). Gaussian is a federally registered
 trademark of Gaussian, Inc.
  
 This software contains proprietary and confidential information,
 including trade secrets, belonging to Gaussian, Inc.
  
 This software is provided under written license and may be
 used, copied, transmitted, or stored only in accord with that
 written license.
  
 The following legend is applicable only to US Government
 contracts under FAR:
  
                    RESTRICTED RIGHTS LEGEND
  
 Use, reproduction and disclosure by the US Government is
 subject to restrictions as set forth in subparagraphs (a)
 and (c) of the Commercial Computer Software - Restricted
 Rights clause in FAR 52.227-19.
  
 Gaussian, Inc.
 340 Quinnipiac St., Bldg. 40, Wallingford CT 06492
  
  
 ---------------------------------------------------------------
 Warning -- This program may not be used in any manner that
 competes with the business of Gaussian, Inc. or will provide
 assistance to any competitor of Gaussian, Inc.  The licensee
 of this program is prohibited from giving any competitor of
 Gaussian, Inc. access to this program.  By using this program,
 the user acknowledges that Gaussian, Inc. is engaged in the
 business of creating and licensing software in the field of
 computational chemistry and represents and warrants to the
 licensee that it is not a competitor of Gaussian, Inc. and that
 it will not use this program in any manner prohibited above.
 ---------------------------------------------------------------
  

 Cite this work as:
 Gaussian 16, Revision C.02,
 M. J. Frisch, G. W. Trucks, H. B. Schlegel, G. E. Scuseria, 
 M. A. Robb, J. R. Cheeseman, G. Scalmani, V. Barone, 
 G. A. Petersson, H. Nakatsuji, X. Li, M. Caricato, A. V. Marenich, 
 J. Bloino, B. G. Janesko, R. Gomperts, B. Mennucci, H. P. Hratchian, 
 J. V. Ortiz, A. F. Izmaylov, J. L. Sonnenberg, D. Williams-Young, 
 F. Ding, F. Lipparini, F. Egidi, J. Goings, B. Peng, A. Petrone, 
 T. Henderson, D. Ranasinghe, V. G. Zakrzewski, J. Gao, N. Rega, 
 G. Zheng, W. Liang, M. Hada, M. Ehara, K. Toyota, R. Fukuda, 
 J. Hasegawa, M. Ishida, T. Nakajima, Y. Honda, O. Kitao, H. Nakai, 
 T. Vreven, K. Throssell, J. A. Montgomery, Jr., J. E. Peralta, 
 F. Ogliaro, M. J. Bearpark, J. J. Heyd, E. N. Brothers, K. N. Kudin, 
 V. N. Staroverov, T. A. Keith, R. Kobayashi, J. Normand, 
 K. Raghavachari, A. P. Rendell, J. C. Burant, S. S. Iyengar, 
 J. Tomasi, M. Cossi, J. M. Millam, M. Klene, C. Adamo, R. Cammi, 
 J. W. Ochterski, R. L. Martin, K. Morokuma, O. Farkas, 
 J. B. Foresman, and D. J. Fox, Gaussian, Inc., Wallingford CT, 2019.
 
 ******************************************
 Gaussian 16:  ES64L-G16RevC.02  7-Dec-2021
                20-Jul-2023 
 ******************************************
 %NProcShared=16
 Will use up to   16 processors via shared memory.
 %LindaWorkers=tcn524
 %Chk=corannulene_aliph.chk
 %mem=9Gb
 SetLPE:    new flags="-opt 'Tsnet.Node.lindarsharg: ssh'  -nodelist 'tcn524.local.snellius.surf.nl' -env GAUSS_MDEF=1207959552 -env GAUSS_EXEDIR="/sw/arch/RHEL8/EB_production/2022/software/Gaussian/g16.c02/bsd:/sw/arch/RHEL8/EB_production/2022/software/Gaussian/g16.c02""
 Will use up to    1 processors via Linda.
 ----------------------------------------------------------------
 #n M062X/6-31G scf=novaracc Opt=tight int=ultrafine freq=noraman
 ----------------------------------------------------------------
 1/7=10,18=20,19=15,26=4,38=1/1,3;
 2/9=110,12=2,17=6,18=5,40=1/2;
 3/5=1,6=6,11=2,25=1,30=1,71=1,74=-55,75=-5/1,2,3;
 4//1;
 5/5=2,38=1/2;
 6/7=2,8=2,9=2,10=2,28=1/1;
 7//1,2,3,16;
 1/7=10,18=20,19=15,26=4/3(2);
 2/9=110/2;
 99//99;
 2/9=110/2;
 3/5=1,6=6,11=2,25=1,30=1,71=1,74=-55,75=-5/1,2,3;
 4/5=5,16=3,69=1/1;
 5/5=2,38=1/2;
 7//1,2,3,16;
 1/7=10,18=20,19=15,26=4/3(-5);
 2/9=110/2;
 6/7=2,8=2,9=2,10=2,19=2,28=1/1;
 99/9=1/99;
 -----------------
 Corannulene_aliph
 -----------------
 Symbolic Z-matrix:
 Charge =  1 Multiplicity = 2
 C                     1.21226  -0.12007   0.07678 
 C                     0.42332   1.06423   0.03839 
 C                    -0.88237   0.66127   0.00582 
 C                    -0.89852  -0.70359   0.02414 
 C                     0.37382  -1.18987   0.05529 
 C                     2.57181  -0.18531  -0.03737 
 C                     3.0535    1.16445  -0.14069 
 C                     2.40158   2.53711  -0.20254 
 C                     0.86841   2.35902  -0.12012 
 C                    -0.1671    3.29365  -0.2534 
 C                    -1.55855   2.87523  -0.26218 
 C                    -1.95595   1.49096  -0.15697 
 C                    -3.18912   0.75756  -0.23256 
 C                    -3.22032  -0.69013  -0.20507 
 C                    -2.02061  -1.47762  -0.10448 
 C                    -1.71635  -2.88422  -0.15495 
 C                    -0.35414  -3.37928  -0.13635 
 C                     0.77324  -2.49233  -0.05896 
 C                     2.21679  -2.61521  -0.12887 
 C                     3.10372  -1.46354  -0.13249 
 H                     2.74101   3.1579    0.63182 
 H                     0.06265   4.34763  -0.39254 
 H                    -2.32943   3.6307   -0.40473 
 H                    -4.1221    1.30203  -0.36134 
 H                    -4.17738  -1.1966   -0.31191 
 H                    -2.53185  -3.59697  -0.26014 
 H                    -0.18138  -4.44906  -0.23187 
 H                     2.65076  -3.60761  -0.23901 
 H                     4.1728   -1.61087  -0.25198 
 H                     2.65194   3.02024  -1.15244 
 

 GradGradGradGradGradGradGradGradGradGradGradGradGradGradGradGradGradGrad
 Berny optimization.
 Initialization pass.
                           ----------------------------
                           !    Initial Parameters    !
                           ! (Angstroms and Degrees)  !
 --------------------------                            --------------------------
 ! Name  Definition              Value          Derivative Info.                !
 --------------------------------------------------------------------------------
 ! R1    R(1,2)                  1.4235         estimate D2E/DX2                !
 ! R2    R(1,5)                  1.3594         estimate D2E/DX2                !
 ! R3    R(1,6)                  1.3659         estimate D2E/DX2                !
 ! R4    R(2,3)                  1.3668         estimate D2E/DX2                !
 ! R5    R(2,9)                  1.3783         estimate D2E/DX2                !
 ! R6    R(3,4)                  1.3651         estimate D2E/DX2                !
 ! R7    R(3,12)                 1.3666         estimate D2E/DX2                !
 ! R8    R(4,5)                  1.3625         estimate D2E/DX2                !
 ! R9    R(4,15)                 1.3692         estimate D2E/DX2                !
 ! R10   R(5,18)                 1.3671         estimate D2E/DX2                !
 ! R11   R(6,7)                  1.4369         estimate D2E/DX2                !
 ! R12   R(6,20)                 1.3877         estimate D2E/DX2                !
 ! R13   R(7,8)                  1.5209         estimate D2E/DX2                !
 ! R14   R(8,9)                  1.5457         estimate D2E/DX2                !
 ! R15   R(8,21)                 1.094          estimate D2E/DX2                !
 ! R16   R(8,30)                 1.0947         estimate D2E/DX2                !
 ! R17   R(9,10)                 1.4013         estimate D2E/DX2                !
 ! R18   R(10,11)                1.453          estimate D2E/DX2                !
 ! R19   R(10,22)                1.0877         estimate D2E/DX2                !
 ! R20   R(11,12)                1.444          estimate D2E/DX2                !
 ! R21   R(11,23)                1.0887         estimate D2E/DX2                !
 ! R22   R(12,13)                1.4368         estimate D2E/DX2                !
 ! R23   R(13,14)                1.4483         estimate D2E/DX2                !
 ! R24   R(13,24)                1.0879         estimate D2E/DX2                !
 ! R25   R(14,15)                1.4386         estimate D2E/DX2                !
 ! R26   R(14,25)                1.0881         estimate D2E/DX2                !
 ! R27   R(15,16)                1.44           estimate D2E/DX2                !
 ! R28   R(16,17)                1.4495         estimate D2E/DX2                !
 ! R29   R(16,26)                1.0882         estimate D2E/DX2                !
 ! R30   R(17,18)                1.4365         estimate D2E/DX2                !
 ! R31   R(17,27)                1.0878         estimate D2E/DX2                !
 ! R32   R(18,19)                1.4505         estimate D2E/DX2                !
 ! R33   R(19,20)                1.4536         estimate D2E/DX2                !
 ! R34   R(19,28)                1.0887         estimate D2E/DX2                !
 ! R35   R(20,29)                1.0858         estimate D2E/DX2                !
 ! A1    A(2,1,5)              108.2078         estimate D2E/DX2                !
 ! A2    A(2,1,6)              126.0945         estimate D2E/DX2                !
 ! A3    A(5,1,6)              125.1001         estimate D2E/DX2                !
 ! A4    A(1,2,3)              106.5464         estimate D2E/DX2                !
 ! A5    A(1,2,9)              127.2768         estimate D2E/DX2                !
 ! A6    A(3,2,9)              125.6397         estimate D2E/DX2                !
 ! A7    A(2,3,4)              107.803          estimate D2E/DX2                !
 ! A8    A(2,3,12)             125.0514         estimate D2E/DX2                !
 ! A9    A(4,3,12)             126.8233         estimate D2E/DX2                !
 ! A10   A(3,4,5)              110.2499         estimate D2E/DX2                !
 ! A11   A(3,4,15)             125.0054         estimate D2E/DX2                !
 ! A12   A(5,4,15)             124.4502         estimate D2E/DX2                !
 ! A13   A(1,5,4)              107.1854         estimate D2E/DX2                !
 ! A14   A(1,5,18)             124.8116         estimate D2E/DX2                !
 ! A15   A(4,5,18)             127.6593         estimate D2E/DX2                !
 ! A16   A(1,6,7)              107.1469         estimate D2E/DX2                !
 ! A17   A(1,6,20)             115.5458         estimate D2E/DX2                !
 ! A18   A(7,6,20)             137.0398         estimate D2E/DX2                !
 ! A19   A(6,7,8)              134.997          estimate D2E/DX2                !
 ! A20   A(7,8,9)              108.6039         estimate D2E/DX2                !
 ! A21   A(7,8,21)             110.3745         estimate D2E/DX2                !
 ! A22   A(7,8,30)             109.6078         estimate D2E/DX2                !
 ! A23   A(9,8,21)             109.4193         estimate D2E/DX2                !
 ! A24   A(9,8,30)             108.9029         estimate D2E/DX2                !
 ! A25   A(21,8,30)            109.9013         estimate D2E/DX2                !
 ! A26   A(2,9,8)              115.7651         estimate D2E/DX2                !
 ! A27   A(2,9,10)             113.5079         estimate D2E/DX2                !
 ! A28   A(8,9,10)             130.6228         estimate D2E/DX2                !
 ! A29   A(9,10,11)            121.0755         estimate D2E/DX2                !
 ! A30   A(9,10,22)            120.1588         estimate D2E/DX2                !
 ! A31   A(11,10,22)           118.7215         estimate D2E/DX2                !
 ! A32   A(10,11,12)           122.6258         estimate D2E/DX2                !
 ! A33   A(10,11,23)           118.6218         estimate D2E/DX2                !
 ! A34   A(12,11,23)           118.6771         estimate D2E/DX2                !
 ! A35   A(3,12,11)            111.9931         estimate D2E/DX2                !
 ! A36   A(3,12,13)            111.755          estimate D2E/DX2                !
 ! A37   A(11,12,13)           136.1952         estimate D2E/DX2                !
 ! A38   A(12,13,14)           121.8524         estimate D2E/DX2                !
 ! A39   A(12,13,24)           119.133          estimate D2E/DX2                !
 ! A40   A(14,13,24)           118.9504         estimate D2E/DX2                !
 ! A41   A(13,14,15)           122.0418         estimate D2E/DX2                !
 ! A42   A(13,14,25)           118.8403         estimate D2E/DX2                !
 ! A43   A(15,14,25)           119.0516         estimate D2E/DX2                !
 ! A44   A(4,15,14)            112.3675         estimate D2E/DX2                !
 ! A45   A(4,15,16)            112.478          estimate D2E/DX2                !
 ! A46   A(14,15,16)           135.1091         estimate D2E/DX2                !
 ! A47   A(15,16,17)           122.1224         estimate D2E/DX2                !
 ! A48   A(15,16,26)           119.0021         estimate D2E/DX2                !
 ! A49   A(17,16,26)           118.8047         estimate D2E/DX2                !
 ! A50   A(16,17,18)           121.8263         estimate D2E/DX2                !
 ! A51   A(16,17,27)           118.9462         estimate D2E/DX2                !
 ! A52   A(18,17,27)           119.1611         estimate D2E/DX2                !
 ! A53   A(5,18,17)            111.3115         estimate D2E/DX2                !
 ! A54   A(5,18,19)            112.056          estimate D2E/DX2                !
 ! A55   A(17,18,19)           136.5643         estimate D2E/DX2                !
 ! A56   A(18,19,20)           122.7005         estimate D2E/DX2                !
 ! A57   A(18,19,28)           118.6074         estimate D2E/DX2                !
 ! A58   A(20,19,28)           118.6019         estimate D2E/DX2                !
 ! A59   A(6,20,19)            119.717          estimate D2E/DX2                !
 ! A60   A(6,20,29)            120.6585         estimate D2E/DX2                !
 ! A61   A(19,20,29)           119.5735         estimate D2E/DX2                !
 ! D1    D(5,1,2,3)              0.4969         estimate D2E/DX2                !
 ! D2    D(5,1,2,9)           -171.4118         estimate D2E/DX2                !
 ! D3    D(6,1,2,3)            171.9616         estimate D2E/DX2                !
 ! D4    D(6,1,2,9)              0.0529         estimate D2E/DX2                !
 ! D5    D(2,1,5,4)             -0.8339         estimate D2E/DX2                !
 ! D6    D(2,1,5,18)           172.8649         estimate D2E/DX2                !
 ! D7    D(6,1,5,4)           -172.4048         estimate D2E/DX2                !
 ! D8    D(6,1,5,18)             1.294          estimate D2E/DX2                !
 ! D9    D(2,1,6,7)              2.5849         estimate D2E/DX2                !
 ! D10   D(2,1,6,20)          -172.4979         estimate D2E/DX2                !
 ! D11   D(5,1,6,7)            172.6619         estimate D2E/DX2                !
 ! D12   D(5,1,6,20)            -2.4209         estimate D2E/DX2                !
 ! D13   D(1,2,3,4)              0.0398         estimate D2E/DX2                !
 ! D14   D(1,2,3,12)          -173.8044         estimate D2E/DX2                !
 ! D15   D(9,2,3,4)            172.1186         estimate D2E/DX2                !
 ! D16   D(9,2,3,12)            -1.7256         estimate D2E/DX2                !
 ! D17   D(1,2,9,8)             -2.8822         estimate D2E/DX2                !
 ! D18   D(1,2,9,10)           173.8057         estimate D2E/DX2                !
 ! D19   D(3,2,9,8)           -173.3258         estimate D2E/DX2                !
 ! D20   D(3,2,9,10)             3.362          estimate D2E/DX2                !
 ! D21   D(2,3,4,5)             -0.5685         estimate D2E/DX2                !
 ! D22   D(2,3,4,15)          -174.5528         estimate D2E/DX2                !
 ! D23   D(12,3,4,5)           173.1355         estimate D2E/DX2                !
 ! D24   D(12,3,4,15)           -0.8488         estimate D2E/DX2                !
 ! D25   D(2,3,12,11)           -1.3862         estimate D2E/DX2                !
 ! D26   D(2,3,12,13)          176.3299         estimate D2E/DX2                !
 ! D27   D(4,3,12,11)         -174.0585         estimate D2E/DX2                !
 ! D28   D(4,3,12,13)            3.6577         estimate D2E/DX2                !
 ! D29   D(3,4,5,1)              0.8795         estimate D2E/DX2                !
 ! D30   D(3,4,5,18)          -172.5844         estimate D2E/DX2                !
 ! D31   D(15,4,5,1)           174.9043         estimate D2E/DX2                !
 ! D32   D(15,4,5,18)            1.4403         estimate D2E/DX2                !
 ! D33   D(3,4,15,14)           -2.6072         estimate D2E/DX2                !
 ! D34   D(3,4,15,16)          175.3195         estimate D2E/DX2                !
 ! D35   D(5,4,15,14)         -175.7593         estimate D2E/DX2                !
 ! D36   D(5,4,15,16)            2.1674         estimate D2E/DX2                !
 ! D37   D(1,5,18,17)         -176.315          estimate D2E/DX2                !
 ! D38   D(1,5,18,19)            1.1912         estimate D2E/DX2                !
 ! D39   D(4,5,18,17)           -3.9262         estimate D2E/DX2                !
 ! D40   D(4,5,18,19)          173.58           estimate D2E/DX2                !
 ! D41   D(1,6,7,8)             -2.9256         estimate D2E/DX2                !
 ! D42   D(20,6,7,8)           170.5584         estimate D2E/DX2                !
 ! D43   D(1,6,20,19)            1.028          estimate D2E/DX2                !
 ! D44   D(1,6,20,29)          178.42           estimate D2E/DX2                !
 ! D45   D(7,6,20,19)         -172.0692         estimate D2E/DX2                !
 ! D46   D(7,6,20,29)            5.3229         estimate D2E/DX2                !
 ! D47   D(6,7,8,9)              0.5131         estimate D2E/DX2                !
 ! D48   D(6,7,8,21)           120.4627         estimate D2E/DX2                !
 ! D49   D(6,7,8,30)          -118.3542         estimate D2E/DX2                !
 ! D50   D(7,8,9,2)              2.3664         estimate D2E/DX2                !
 ! D51   D(7,8,9,10)          -173.631          estimate D2E/DX2                !
 ! D52   D(21,8,9,2)          -118.176          estimate D2E/DX2                !
 ! D53   D(21,8,9,10)           65.8266         estimate D2E/DX2                !
 ! D54   D(30,8,9,2)           121.6763         estimate D2E/DX2                !
 ! D55   D(30,8,9,10)          -54.321          estimate D2E/DX2                !
 ! D56   D(2,9,10,11)           -1.9485         estimate D2E/DX2                !
 ! D57   D(2,9,10,22)         -179.5004         estimate D2E/DX2                !
 ! D58   D(8,9,10,11)          174.1207         estimate D2E/DX2                !
 ! D59   D(8,9,10,22)           -3.4312         estimate D2E/DX2                !
 ! D60   D(9,10,11,12)          -0.9807         estimate D2E/DX2                !
 ! D61   D(9,10,11,23)        -177.7786         estimate D2E/DX2                !
 ! D62   D(22,10,11,12)        176.6056         estimate D2E/DX2                !
 ! D63   D(22,10,11,23)         -0.1924         estimate D2E/DX2                !
 ! D64   D(10,11,12,3)           2.6064         estimate D2E/DX2                !
 ! D65   D(10,11,12,13)       -174.3286         estimate D2E/DX2                !
 ! D66   D(23,11,12,3)         179.4026         estimate D2E/DX2                !
 ! D67   D(23,11,12,13)          2.4677         estimate D2E/DX2                !
 ! D68   D(3,12,13,14)          -3.0071         estimate D2E/DX2                !
 ! D69   D(3,12,13,24)         179.9385         estimate D2E/DX2                !
 ! D70   D(11,12,13,14)        173.933          estimate D2E/DX2                !
 ! D71   D(11,12,13,24)         -3.1214         estimate D2E/DX2                !
 ! D72   D(12,13,14,15)         -0.1794         estimate D2E/DX2                !
 ! D73   D(12,13,14,25)       -177.1886         estimate D2E/DX2                !
 ! D74   D(24,13,14,15)        176.8802         estimate D2E/DX2                !
 ! D75   D(24,13,14,25)         -0.129          estimate D2E/DX2                !
 ! D76   D(13,14,15,4)           2.9579         estimate D2E/DX2                !
 ! D77   D(13,14,15,16)       -174.3272         estimate D2E/DX2                !
 ! D78   D(25,14,15,4)         179.961          estimate D2E/DX2                !
 ! D79   D(25,14,15,16)          2.6759         estimate D2E/DX2                !
 ! D80   D(4,15,16,17)          -2.8726         estimate D2E/DX2                !
 ! D81   D(4,15,16,26)        -179.7733         estimate D2E/DX2                !
 ! D82   D(14,15,16,17)        174.4103         estimate D2E/DX2                !
 ! D83   D(14,15,16,26)         -2.4904         estimate D2E/DX2                !
 ! D84   D(15,16,17,18)          0.3443         estimate D2E/DX2                !
 ! D85   D(15,16,17,27)       -176.6659         estimate D2E/DX2                !
 ! D86   D(26,16,17,18)        177.251          estimate D2E/DX2                !
 ! D87   D(26,16,17,27)          0.2408         estimate D2E/DX2                !
 ! D88   D(16,17,18,5)           2.8923         estimate D2E/DX2                !
 ! D89   D(16,17,18,19)       -173.7451         estimate D2E/DX2                !
 ! D90   D(27,17,18,5)         179.8963         estimate D2E/DX2                !
 ! D91   D(27,17,18,19)          3.2589         estimate D2E/DX2                !
 ! D92   D(5,18,19,20)          -2.4501         estimate D2E/DX2                !
 ! D93   D(5,18,19,28)        -178.9467         estimate D2E/DX2                !
 ! D94   D(17,18,19,20)        174.1699         estimate D2E/DX2                !
 ! D95   D(17,18,19,28)         -2.3267         estimate D2E/DX2                !
 ! D96   D(18,19,20,6)           1.4166         estimate D2E/DX2                !
 ! D97   D(18,19,20,29)       -176.004          estimate D2E/DX2                !
 ! D98   D(28,19,20,6)         177.9133         estimate D2E/DX2                !
 ! D99   D(28,19,20,29)          0.4928         estimate D2E/DX2                !
 --------------------------------------------------------------------------------
 Trust Radius=3.00D-01 FncErr=1.00D-07 GrdErr=1.00D-06 EigMax=2.50D+02 EigMin=1.00D-04
 Number of steps in this run=    180 maximum allowed number of steps=    180.
 GradGradGradGradGradGradGradGradGradGradGradGradGradGradGradGradGradGrad

                          Input orientation:                          
 ---------------------------------------------------------------------
 Center     Atomic      Atomic             Coordinates (Angstroms)
 Number     Number       Type             X           Y           Z
 ---------------------------------------------------------------------
      1          6           0        1.212260   -0.120070    0.076780
      2          6           0        0.423320    1.064230    0.038390
      3          6           0       -0.882370    0.661270    0.005820
      4          6           0       -0.898520   -0.703590    0.024140
      5          6           0        0.373820   -1.189870    0.055290
      6          6           0        2.571810   -0.185310   -0.037370
      7          6           0        3.053500    1.164450   -0.140690
      8          6           0        2.401580    2.537110   -0.202540
      9          6           0        0.868410    2.359020   -0.120120
     10          6           0       -0.167100    3.293650   -0.253400
     11          6           0       -1.558550    2.875230   -0.262180
     12          6           0       -1.955950    1.490960   -0.156970
     13          6           0       -3.189120    0.757560   -0.232560
     14          6           0       -3.220320   -0.690130   -0.205070
     15          6           0       -2.020610   -1.477620   -0.104480
     16          6           0       -1.716350   -2.884220   -0.154950
     17          6           0       -0.354140   -3.379280   -0.136350
     18          6           0        0.773240   -2.492330   -0.058960
     19          6           0        2.216790   -2.615210   -0.128870
     20          6           0        3.103720   -1.463540   -0.132490
     21          1           0        2.741010    3.157900    0.631820
     22          1           0        0.062650    4.347630   -0.392540
     23          1           0       -2.329430    3.630700   -0.404730
     24          1           0       -4.122100    1.302030   -0.361340
     25          1           0       -4.177380   -1.196600   -0.311910
     26          1           0       -2.531850   -3.596970   -0.260140
     27          1           0       -0.181380   -4.449060   -0.231870
     28          1           0        2.650760   -3.607610   -0.239010
     29          1           0        4.172800   -1.610870   -0.251980
     30          1           0        2.651940    3.020240   -1.152440
 ---------------------------------------------------------------------
                    Distance matrix (angstroms):
                    1          2          3          4          5
     1  C    0.000000
     2  C    1.423540   0.000000
     3  C    2.236739   1.366845   0.000000
     4  C    2.190584   2.207408   1.365078   0.000000
     5  C    1.359381   2.254707   2.237673   1.362456   0.000000
     6  C    1.365893   2.486584   3.556673   3.509357   2.418447
     7  C    2.255538   2.638174   3.970608   4.374380   3.572382
     8  C    2.924570   2.478091   3.787680   4.630786   4.250725
     9  C    2.510556   1.378300   2.442017   3.538705   3.587479
    10  C    3.696639   2.324661   2.740115   4.073074   4.526570
    11  C    4.094399   2.701457   2.330378   3.650421   4.512192
    12  C    3.561967   2.425116   1.366550   2.442746   3.558052
    13  C    4.498674   3.635544   2.321033   2.729048   4.070612
    14  C    4.477965   4.051316   2.708647   2.333125   3.638045
    15  C    3.511018   3.529052   2.425409   1.369216   2.416945
    16  C    4.033730   4.495089   3.645802   2.335822   2.698858
    17  C    3.622359   4.514395   4.077411   2.735219   2.315204
    18  C    2.416357   3.575058   3.562364   2.449751   1.367111
    19  C    2.697609   4.096680   4.512012   3.658259   2.337102
    20  C    2.329448   3.688274   4.519166   4.076761   2.750002
    21  H    3.659267   3.179198   4.444538   5.341026   4.983882
    22  H    4.637047   3.331141   3.826356   5.158710   5.564287
    23  H    5.181090   3.789559   3.328671   4.584485   5.545906
    24  H    5.538024   4.569155   3.322835   3.816094   5.157174
    25  H    5.509829   5.138142   3.796014   3.332703   4.565994
    26  H    5.120616   5.527109   4.574290   3.334701   3.786363
    27  H    4.558251   5.552933   5.163657   3.822091   3.318588
    28  H    3.785755   5.183100   5.546736   4.593470   3.334147
    29  H    3.330971   4.615092   5.548317   5.159233   3.834567
    30  H    3.666771   3.195434   4.404277   5.277975   4.936949
                    6          7          8          9         10
     6  C    0.000000
     7  C    1.436855   0.000000
     8  C    2.732733   1.520862   0.000000
     9  C    3.063011   2.490389   1.545678   0.000000
    10  C    4.432997   3.862442   2.678256   1.401277   0.000000
    11  C    5.145612   4.920623   3.974986   2.485315   1.453026
    12  C    4.829575   5.020106   4.481582   2.954978   2.541451
    13  C    5.840840   6.256541   5.867165   4.363584   3.945224
    14  C    5.816506   6.542509   6.482349   5.101200   5.019461
    15  C    4.771257   5.720877   5.973562   4.802758   5.120810
    16  C    5.068161   6.256469   6.808115   5.845833   6.369925
    17  C    4.332716   5.679570   6.527024   5.867110   6.676577
    18  C    2.925348   4.310256   5.288419   4.852669   5.865118
    19  C    2.457402   3.871182   5.156159   5.153753   6.372838
    20  C    1.387749   2.628483   4.062402   4.428174   5.774404
    21  H    3.413722   2.160617   1.093960   2.170312   3.042885
    22  H    5.193224   4.375071   2.963895   2.162876   1.087667
    23  H    6.222462   5.926891   4.859967   3.453166   2.193667
    24  H    6.864806   7.180310   6.641464   5.106917   4.429472
    25  H    6.830055   7.608515   7.565399   6.175695   6.020641
    26  H    6.142996   7.340403   7.872038   6.859679   7.285103
    27  H    5.079119   6.479526   7.448430   6.889448   7.742753
    28  H    3.429144   4.790034   6.149878   6.228289   7.454390
    29  H    2.154402   2.994598   4.510588   5.166857   6.548973
    30  H    3.394901   2.151475   1.094717   2.164226   2.971534
                   11         12         13         14         15
    11  C    0.000000
    12  C    1.444022   0.000000
    13  C    2.672857   1.436766   0.000000
    14  C    3.934022   2.521527   1.448287   0.000000
    15  C    4.380145   2.969748   2.525441   1.438598   0.000000
    16  C    5.762609   4.381736   3.929076   2.660539   1.440016
    17  C    6.370662   5.126935   5.015956   3.930806   2.528725
    18  C    5.855702   4.829563   5.127594   4.383810   2.972761
    19  C    6.664525   5.854330   6.372613   5.768354   4.387512
    20  C    6.370126   5.859175   6.674064   6.371571   5.124426
    21  H    4.400608   5.046019   6.455635   7.144591   6.686046
    22  H    2.193911   3.505824   4.846463   6.015984   6.193262
    23  H    1.088720   2.186175   3.003938   4.416234   5.126446
    24  H    3.009415   2.183957   1.087880   2.192334   3.494094
    25  H    4.841543   3.490234   2.191277   1.088067   2.184870
    26  H    6.544974   5.121458   4.403941   2.987765   2.185690
    27  H    7.452700   6.199883   6.012935   4.833780   3.496920
    28  H    7.729556   6.871967   7.291018   6.556098   5.135821
    29  H    7.278294   6.869640   7.733544   7.450382   6.196599
    30  H    4.306021   4.956038   6.331183   7.010549   6.569756
                   16         17         18         19         20
    16  C    0.000000
    17  C    1.449499   0.000000
    18  C    2.522073   1.436543   0.000000
    19  C    3.942415   2.682078   1.450456   0.000000
    20  C    5.025128   3.953084   2.548520   1.453617   0.000000
    21  H    7.549456   7.273566   6.022823   5.846559   4.698238
    22  H    7.451238   7.742382   6.884858   7.293215   6.563949
    23  H    6.548469   7.287909   6.872963   7.730175   7.452819
    24  H    4.832693   6.013552   6.201045   7.455222   7.740363
    25  H    2.988205   4.405914   5.123626   6.552203   7.288200
    26  H    1.088172   2.192062   3.490605   4.850842   6.027227
    27  H    2.193348   1.087842   2.184031   3.020734   4.440168
    28  H    4.427416   3.015311   2.191198   1.088723   2.193982
    29  H    6.026020   4.861464   3.517277   2.202233   1.085779
    30  H    7.412125   7.143025   5.925676   5.744158   4.620464
                   21         22         23         24         25
    21  H    0.000000
    22  H    3.104575   0.000000
    23  H    5.196858   2.497235   0.000000
    24  H    7.178642   5.175788   2.939090   0.000000
    25  H    8.228999   6.980175   5.169754   2.499730   0.000000
    26  H    8.615504   8.358566   7.231950   5.151634   2.910709
    27  H    8.194642   8.801541   8.362208   6.972881   5.152952
    28  H    6.821922   8.367062   8.787655   8.366072   7.241670
    29  H    5.056905   7.239946   8.353226   8.792173   8.360665
    30  H    1.791778   3.007297   5.074030   7.033186   8.070182
                   26         27         28         29         30
    26  H    0.000000
    27  H    2.500313   0.000000
    28  H    5.182664   2.954506   0.000000
    29  H    6.992638   5.197558   2.510726   0.000000
    30  H    8.453126   8.041492   6.690497   4.956917   0.000000
 Stoichiometry    C20H10(1+,2)
 Framework group  C1[X(C20H10)]
 Deg. of freedom    84
 Full point group                 C1      NOp   1
 Largest Abelian subgroup         C1      NOp   1
 Largest concise Abelian subgroup C1      NOp   1
                         Standard orientation:                         
 ---------------------------------------------------------------------
 Center     Atomic      Atomic             Coordinates (Angstroms)
 Number     Number       Type             X           Y           Z
 ---------------------------------------------------------------------
      1          6           0        0.042228   -1.177642   -0.179670
      2          6           0       -1.113194   -0.346138   -0.171382
      3          6           0       -0.663792    0.944556   -0.151127
      4          6           0        0.700879    0.911337   -0.148016
      5          6           0        1.141215   -0.377990   -0.153218
      6          6           0        0.056464   -2.536809   -0.045038
      7          6           0       -1.311270   -2.968056    0.043739
      8          6           0       -2.660225   -2.266345    0.074456
      9          6           0       -2.425523   -0.741968   -0.027079
     10          6           0       -3.324000    0.328353    0.076508
     11          6           0       -2.855681    1.703832    0.071995
     12          6           0       -1.456485    2.049583   -0.016917
     13          6           0       -0.680182    3.256569    0.052631
     14          6           0        0.767940    3.235274    0.047673
     15          6           0        1.512946    2.006656   -0.023214
     16          6           0        2.906674    1.652793    0.053922
     17          6           0        3.352338    0.273535    0.062693
     18          6           0        2.426461   -0.822246   -0.012606
     19          6           0        2.495931   -2.268080    0.079914
     20          6           0        1.312997   -3.112868    0.077962
     21          1           0       -3.280019   -2.595613   -0.764703
     22          1           0       -4.387614    0.138752    0.202182
     23          1           0       -3.584856    2.503418    0.191483
     24          1           0       -1.192443    4.210340    0.159379
     25          1           0        1.307015    4.174986    0.148817
     26          1           0        3.646772    2.443609    0.158718
     27          1           0        4.413574    0.063856    0.177641
     28          1           0        3.470169   -2.735771    0.211992
     29          1           0        1.419690   -4.184657    0.215075
     30          1           0       -3.166615   -2.485000    1.020058
 ---------------------------------------------------------------------
 Rotational constants (GHZ):           0.5109218           0.4935675           0.2520538
 Standard basis: 6-31G (6D, 7F)
 There are   200 symmetry adapted cartesian basis functions of A   symmetry.
 There are   200 symmetry adapted basis functions of A   symmetry.
   200 basis functions,   480 primitive gaussians,   200 cartesian basis functions
    65 alpha electrons       64 beta electrons
       nuclear repulsion energy      1379.3908481532 Hartrees.
 NAtoms=   30 NActive=   30 NUniq=   30 SFac= 1.00D+00 NAtFMM=   60 NAOKFM=F Big=F
 Integral buffers will be    131072 words long.
 Raffenetti 2 integral format.
 Two-electron integral symmetry is turned on.
 One-electron integrals computed using PRISM.
 NBasis=   200 RedAO= T EigKep=  1.99D-04  NBF=   200
 NBsUse=   200 1.00D-06 EigRej= -1.00D+00 NBFU=   200
 ExpMin= 1.61D-01 ExpMax= 3.05D+03 ExpMxC= 4.57D+02 IAcc=3 IRadAn=         5 AccDes= 0.00D+00
 Harris functional with IExCor= 1009 and IRadAn=       5 diagonalized for initial guess.
 HarFok:  IExCor= 1009 AccDes= 0.00D+00 IRadAn=         5 IDoV= 1 UseB2=F ITyADJ=14
 ICtDFT=  3500011 ScaDFX=  1.000000  1.000000  1.000000  1.000000
 FoFCou: FMM=F IPFlag=           0 FMFlag=      100000 FMFlg1=           0
         NFxFlg=           0 DoJE=T BraDBF=F KetDBF=T FulRan=T
         wScrn=  0.000000 ICntrl=       500 IOpCl=  0 I1Cent=   200000004 NGrid=           0
         NMat0=    1 NMatS0=      1 NMatT0=    0 NMatD0=    1 NMtDS0=    0 NMtDT0=    0
 Petite list used in FoFCou.
 Initial guess <Sx>= 0.0000 <Sy>= 0.0000 <Sz>= 0.5000 <S**2>= 0.7500 S= 0.5000
 Requested convergence on RMS density matrix=1.00D-08 within 128 cycles.
 Requested convergence on MAX density matrix=1.00D-06.
 Requested convergence on             energy=1.00D-06.
 No special actions if energy rises.
 Restarting incremental Fock formation.
 SCF Done:  E(UM062X) =  -767.283464189     A.U. after   25 cycles
            NFock= 25  Conv=0.49D-08     -V/T= 2.0046
 <Sx>= 0.0000 <Sy>= 0.0000 <Sz>= 0.5000 <S**2>= 0.8470 S= 0.5474
 <L.S>=  0.00000000000    
 Annihilation of the first spin contaminant:
 S**2 before annihilation     0.8470,   after     0.7512

 **********************************************************************

            Population analysis using the SCF Density.

 **********************************************************************

 Orbital symmetries:
 Alpha Orbitals:
       Occupied  (A) (A) (A) (A) (A) (A) (A) (A) (A) (A) (A) (A)
                 (A) (A) (A) (A) (A) (A) (A) (A) (A) (A) (A) (A)
                 (A) (A) (A) (A) (A) (A) (A) (A) (A) (A) (A) (A)
                 (A) (A) (A) (A) (A) (A) (A) (A) (A) (A) (A) (A)
                 (A) (A) (A) (A) (A) (A) (A) (A) (A) (A) (A) (A)
                 (A) (A) (A) (A) (A)
       Virtual   (A) (A) (A) (A) (A) (A) (A) (A) (A) (A) (A) (A)
                 (A) (A) (A) (A) (A) (A) (A) (A) (A) (A) (A) (A)
                 (A) (A) (A) (A) (A) (A) (A) (A) (A) (A) (A) (A)
                 (A) (A) (A) (A) (A) (A) (A) (A) (A) (A) (A) (A)
                 (A) (A) (A) (A) (A) (A) (A) (A) (A) (A) (A) (A)
                 (A) (A) (A) (A) (A) (A) (A) (A) (A) (A) (A) (A)
                 (A) (A) (A) (A) (A) (A) (A) (A) (A) (A) (A) (A)
                 (A) (A) (A) (A) (A) (A) (A) (A) (A) (A) (A) (A)
                 (A) (A) (A) (A) (A) (A) (A) (A) (A) (A) (A) (A)
                 (A) (A) (A) (A) (A) (A) (A) (A) (A) (A) (A) (A)
                 (A) (A) (A) (A) (A) (A) (A) (A) (A) (A) (A) (A)
                 (A) (A) (A)
 Beta  Orbitals:
       Occupied  (A) (A) (A) (A) (A) (A) (A) (A) (A) (A) (A) (A)
                 (A) (A) (A) (A) (A) (A) (A) (A) (A) (A) (A) (A)
                 (A) (A) (A) (A) (A) (A) (A) (A) (A) (A) (A) (A)
                 (A) (A) (A) (A) (A) (A) (A) (A) (A) (A) (A) (A)
                 (A) (A) (A) (A) (A) (A) (A) (A) (A) (A) (A) (A)
                 (A) (A) (A) (A)
       Virtual   (A) (A) (A) (A) (A) (A) (A) (A) (A) (A) (A) (A)
                 (A) (A) (A) (A) (A) (A) (A) (A) (A) (A) (A) (A)
                 (A) (A) (A) (A) (A) (A) (A) (A) (A) (A) (A) (A)
                 (A) (A) (A) (A) (A) (A) (A) (A) (A) (A) (A) (A)
                 (A) (A) (A) (A) (A) (A) (A) (A) (A) (A) (A) (A)
                 (A) (A) (A) (A) (A) (A) (A) (A) (A) (A) (A) (A)
                 (A) (A) (A) (A) (A) (A) (A) (A) (A) (A) (A) (A)
                 (A) (A) (A) (A) (A) (A) (A) (A) (A) (A) (A) (A)
                 (A) (A) (A) (A) (A) (A) (A) (A) (A) (A) (A) (A)
                 (A) (A) (A) (A) (A) (A) (A) (A) (A) (A) (A) (A)
                 (A) (A) (A) (A) (A) (A) (A) (A) (A) (A) (A) (A)
                 (A) (A) (A) (A)
 The electronic state is 2-A.
 Alpha  occ. eigenvalues --  -10.81409 -10.74722 -10.74501 -10.73101 -10.72588
 Alpha  occ. eigenvalues --  -10.72495 -10.72376 -10.72292 -10.71920 -10.71272
 Alpha  occ. eigenvalues --  -10.70939 -10.70464 -10.70423 -10.70273 -10.69954
 Alpha  occ. eigenvalues --  -10.69887 -10.68979 -10.68158 -10.67647 -10.67242
 Alpha  occ. eigenvalues --   -1.20262  -1.13208  -1.11994  -1.06809  -1.05704
 Alpha  occ. eigenvalues --   -1.05329  -0.99175  -0.97794  -0.95685  -0.95342
 Alpha  occ. eigenvalues --   -0.89683  -0.88121  -0.86080  -0.83383  -0.82625
 Alpha  occ. eigenvalues --   -0.81377  -0.74456  -0.73234  -0.72940  -0.72133
 Alpha  occ. eigenvalues --   -0.71282  -0.69703  -0.66925  -0.65955  -0.65368
 Alpha  occ. eigenvalues --   -0.64923  -0.63991  -0.63527  -0.62529  -0.61026
 Alpha  occ. eigenvalues --   -0.60543  -0.59621  -0.59313  -0.57383  -0.56361
 Alpha  occ. eigenvalues --   -0.54940  -0.53223  -0.52422  -0.51904  -0.50511
 Alpha  occ. eigenvalues --   -0.47408  -0.46476  -0.42400  -0.40979  -0.40504
 Alpha virt. eigenvalues --   -0.26918  -0.18513  -0.14281  -0.10055  -0.08365
 Alpha virt. eigenvalues --   -0.05405  -0.01305   0.00506   0.01334   0.03545
 Alpha virt. eigenvalues --    0.03926   0.04385   0.05444   0.06571   0.06626
 Alpha virt. eigenvalues --    0.06913   0.08844   0.10000   0.11163   0.12092
 Alpha virt. eigenvalues --    0.12872   0.13405   0.13972   0.15308   0.15994
 Alpha virt. eigenvalues --    0.16668   0.18459   0.19992   0.20998   0.21851
 Alpha virt. eigenvalues --    0.22962   0.23952   0.26115   0.30142   0.31842
 Alpha virt. eigenvalues --    0.33674   0.36772   0.37554   0.38063   0.38972
 Alpha virt. eigenvalues --    0.40370   0.41144   0.41747   0.42547   0.43363
 Alpha virt. eigenvalues --    0.44102   0.45333   0.46626   0.46822   0.47944
 Alpha virt. eigenvalues --    0.48018   0.48464   0.48968   0.50175   0.51059
 Alpha virt. eigenvalues --    0.51079   0.51301   0.52232   0.52326   0.52880
 Alpha virt. eigenvalues --    0.53123   0.55279   0.55677   0.56227   0.56573
 Alpha virt. eigenvalues --    0.57820   0.58170   0.58524   0.59343   0.59759
 Alpha virt. eigenvalues --    0.60540   0.61330   0.62943   0.63752   0.63830
 Alpha virt. eigenvalues --    0.64719   0.66913   0.69725   0.69747   0.73815
 Alpha virt. eigenvalues --    0.75297   0.76934   0.77950   0.78105   0.78782
 Alpha virt. eigenvalues --    0.79192   0.80529   0.81379   0.82649   0.83014
 Alpha virt. eigenvalues --    0.83713   0.84576   0.86037   0.86426   0.87154
 Alpha virt. eigenvalues --    0.87835   0.88205   0.89230   0.91866   0.93052
 Alpha virt. eigenvalues --    0.93352   0.95315   0.97251   0.98064   0.98750
 Alpha virt. eigenvalues --    1.02085   1.02893   1.05722   1.08990   1.09283
 Alpha virt. eigenvalues --    1.11867   1.16064   1.17268   1.19368   1.20630
 Alpha virt. eigenvalues --    1.23108   1.25072   1.26555   1.27456   1.34269
 Alpha virt. eigenvalues --    1.34680   1.36581   1.39231   1.39936   1.41080
 Alpha virt. eigenvalues --    1.44657   1.46037   1.49256   1.50076   1.55108
 Alpha virt. eigenvalues --    1.73730   1.75038   1.82427   1.82734   1.87342
  Beta  occ. eigenvalues --  -10.80246 -10.74725 -10.74551 -10.73049 -10.72603
  Beta  occ. eigenvalues --  -10.72445 -10.72407 -10.72245 -10.71954 -10.71290
  Beta  occ. eigenvalues --  -10.70928 -10.70454 -10.70404 -10.70279 -10.69952
  Beta  occ. eigenvalues --  -10.69895 -10.68975 -10.68131 -10.67648 -10.67239
  Beta  occ. eigenvalues --   -1.20106  -1.12634  -1.11826  -1.06448  -1.05599
  Beta  occ. eigenvalues --   -1.04923  -0.98884  -0.97442  -0.95574  -0.95058
  Beta  occ. eigenvalues --   -0.89101  -0.87978  -0.85698  -0.83090  -0.82530
  Beta  occ. eigenvalues --   -0.80330  -0.74311  -0.73045  -0.72526  -0.72053
  Beta  occ. eigenvalues --   -0.70026  -0.69135  -0.66472  -0.65902  -0.65461
  Beta  occ. eigenvalues --   -0.64750  -0.63808  -0.63453  -0.62343  -0.60783
  Beta  occ. eigenvalues --   -0.60324  -0.59521  -0.59249  -0.56575  -0.56175
  Beta  occ. eigenvalues --   -0.54882  -0.53224  -0.52367  -0.51318  -0.50769
  Beta  occ. eigenvalues --   -0.46807  -0.41833  -0.41039  -0.40440
  Beta virt. eigenvalues --   -0.23388  -0.19503  -0.18409  -0.14219  -0.09810
  Beta virt. eigenvalues --   -0.08311  -0.05455  -0.01366   0.01006   0.01451
  Beta virt. eigenvalues --    0.03546   0.04053   0.04694   0.05568   0.06602
  Beta virt. eigenvalues --    0.06620   0.06889   0.09029   0.10075   0.11398
  Beta virt. eigenvalues --    0.12179   0.12942   0.13377   0.14089   0.15280
  Beta virt. eigenvalues --    0.16000   0.16912   0.18456   0.19924   0.20891
  Beta virt. eigenvalues --    0.21997   0.23010   0.24034   0.26616   0.30358
  Beta virt. eigenvalues --    0.31930   0.32943   0.36916   0.37784   0.38238
  Beta virt. eigenvalues --    0.39425   0.40866   0.40921   0.41974   0.42946
  Beta virt. eigenvalues --    0.43400   0.44968   0.45356   0.46602   0.47082
  Beta virt. eigenvalues --    0.47905   0.48001   0.48591   0.48953   0.50222
  Beta virt. eigenvalues --    0.50956   0.51034   0.51571   0.52195   0.52379
  Beta virt. eigenvalues --    0.52947   0.53329   0.55351   0.55641   0.56402
  Beta virt. eigenvalues --    0.56679   0.57878   0.58124   0.58571   0.59302
  Beta virt. eigenvalues --    0.59789   0.60435   0.61147   0.63081   0.63745
  Beta virt. eigenvalues --    0.63933   0.64636   0.66722   0.68772   0.69688
  Beta virt. eigenvalues --    0.73768   0.75074   0.76934   0.77878   0.78037
  Beta virt. eigenvalues --    0.78737   0.79164   0.80460   0.81309   0.82634
  Beta virt. eigenvalues --    0.83068   0.83677   0.84534   0.85779   0.86412
  Beta virt. eigenvalues --    0.87096   0.87865   0.88118   0.89181   0.91842
  Beta virt. eigenvalues --    0.93161   0.93428   0.95241   0.97189   0.98011
  Beta virt. eigenvalues --    0.98666   1.02233   1.02925   1.05620   1.08856
  Beta virt. eigenvalues --    1.09277   1.11848   1.15818   1.17305   1.19165
  Beta virt. eigenvalues --    1.20593   1.22896   1.25028   1.26554   1.27400
  Beta virt. eigenvalues --    1.34228   1.34648   1.36420   1.39113   1.39917
  Beta virt. eigenvalues --    1.41059   1.44612   1.46052   1.49228   1.50131
  Beta virt. eigenvalues --    1.55116   1.73681   1.74970   1.82260   1.82556
  Beta virt. eigenvalues --    1.87160
          Condensed to atoms (all electrons):
               1          2          3          4          5          6
     1  C    5.700409   0.226978  -0.032967   0.003687   0.218842   0.344800
     2  C    0.226978   5.402598   0.276926   0.008149  -0.078302  -0.114218
     3  C   -0.032967   0.276926   5.460201   0.282761  -0.022916   0.018908
     4  C    0.003687   0.008149   0.282761   5.454655   0.245106   0.020706
     5  C    0.218842  -0.078302  -0.022916   0.245106   5.621428  -0.079966
     6  C    0.344800  -0.114218   0.018908   0.020706  -0.079966   5.052013
     7  C   -0.028438  -0.030123   0.003668  -0.002617   0.019095   0.431182
     8  C   -0.030892  -0.046932   0.008038  -0.000667  -0.000020  -0.046648
     9  C   -0.060524   0.481109  -0.090014   0.015549   0.023544  -0.030215
    10  C    0.013982  -0.024399  -0.050959  -0.000286  -0.000673   0.000404
    11  C    0.000994  -0.050344  -0.027404   0.016426  -0.001476   0.000018
    12  C    0.018418  -0.098462   0.453250  -0.091465   0.020038  -0.000154
    13  C   -0.001250   0.015568  -0.030271  -0.054918   0.000868  -0.000002
    14  C   -0.001160   0.000957  -0.052979  -0.032482   0.015847  -0.000002
    15  C    0.027314   0.021497  -0.098908   0.450865  -0.097356  -0.000348
    16  C    0.000107  -0.001245   0.015240  -0.026999  -0.052244   0.000062
    17  C    0.017204  -0.000987   0.000327  -0.054251  -0.033204   0.000191
    18  C   -0.101782   0.016423   0.017039  -0.082822   0.428308  -0.036499
    19  C   -0.056138   0.000275  -0.000979   0.013401  -0.023010  -0.033186
    20  C   -0.045929   0.013277  -0.001055   0.000932  -0.058069   0.431463
    21  H    0.000206  -0.000886  -0.000305   0.000017  -0.000012   0.001367
    22  H   -0.000270   0.003387   0.001212  -0.000012   0.000009   0.000001
    23  H   -0.000008   0.001210   0.004983  -0.000269   0.000005  -0.000000
    24  H    0.000006  -0.000321   0.004798   0.001362  -0.000003  -0.000000
    25  H    0.000008  -0.000011   0.001261   0.004624  -0.000345   0.000000
    26  H   -0.000012   0.000006  -0.000276   0.004676   0.001040  -0.000000
    27  H   -0.000356   0.000005  -0.000003   0.001396   0.004909   0.000017
    28  H    0.001391  -0.000001   0.000004  -0.000257   0.004813   0.002257
    29  H    0.004329  -0.000265   0.000007  -0.000010   0.000936  -0.024263
    30  H   -0.000071  -0.000357  -0.000139   0.000018   0.000018   0.001413
               7          8          9         10         11         12
     1  C   -0.028438  -0.030892  -0.060524   0.013982   0.000994   0.018418
     2  C   -0.030123  -0.046932   0.481109  -0.024399  -0.050344  -0.098462
     3  C    0.003668   0.008038  -0.090014  -0.050959  -0.027404   0.453250
     4  C   -0.002617  -0.000667   0.015549  -0.000286   0.016426  -0.091465
     5  C    0.019095  -0.000020   0.023544  -0.000673  -0.001476   0.020038
     6  C    0.431182  -0.046648  -0.030215   0.000404   0.000018  -0.000154
     7  C    5.144489   0.335919  -0.061020   0.002653  -0.000082   0.000085
     8  C    0.335919   5.303701   0.217720  -0.029176   0.002176   0.000753
     9  C   -0.061020   0.217720   5.064524   0.456604  -0.040431  -0.040857
    10  C    0.002653  -0.029176   0.456604   4.995665   0.525398  -0.029840
    11  C   -0.000082   0.002176  -0.040431   0.525398   4.975992   0.425349
    12  C    0.000085   0.000753  -0.040857  -0.029840   0.425349   4.852477
    13  C   -0.000000   0.000010   0.000364   0.002902  -0.037421   0.421792
    14  C    0.000000  -0.000000   0.000035  -0.000101   0.002706  -0.036532
    15  C   -0.000018   0.000004  -0.000314  -0.000004   0.000633  -0.036303
    16  C    0.000002  -0.000000   0.000000   0.000000   0.000006   0.000527
    17  C    0.000008   0.000000  -0.000004  -0.000000   0.000000   0.000039
    18  C    0.000198   0.000015  -0.000047  -0.000004  -0.000007  -0.000163
    19  C    0.003034  -0.000079   0.000046   0.000000   0.000000  -0.000003
    20  C   -0.038018   0.001612  -0.000362  -0.000001   0.000000  -0.000008
    21  H   -0.023004   0.356328  -0.026495  -0.000928  -0.000017  -0.000004
    22  H   -0.000002  -0.001313  -0.029974   0.361067  -0.019202   0.002002
    23  H    0.000001  -0.000079   0.002675  -0.026535   0.354810  -0.026863
    24  H   -0.000000  -0.000000   0.000011  -0.000061  -0.001039  -0.026710
    25  H    0.000000   0.000000  -0.000000   0.000001  -0.000068   0.002098
    26  H    0.000000   0.000000  -0.000000  -0.000000  -0.000000   0.000010
    27  H   -0.000000  -0.000000  -0.000000   0.000000   0.000000  -0.000000
    28  H   -0.000084   0.000000  -0.000000   0.000000   0.000000  -0.000000
    29  H    0.000551  -0.000041   0.000011  -0.000000  -0.000000   0.000000
    30  H   -0.027339   0.365363  -0.032096  -0.001532   0.000045  -0.000018
              13         14         15         16         17         18
     1  C   -0.001250  -0.001160   0.027314   0.000107   0.017204  -0.101782
     2  C    0.015568   0.000957   0.021497  -0.001245  -0.000987   0.016423
     3  C   -0.030271  -0.052979  -0.098908   0.015240   0.000327   0.017039
     4  C   -0.054918  -0.032482   0.450865  -0.026999  -0.054251  -0.082822
     5  C    0.000868   0.015847  -0.097356  -0.052244  -0.033204   0.428308
     6  C   -0.000002  -0.000002  -0.000348   0.000062   0.000191  -0.036499
     7  C   -0.000000   0.000000  -0.000018   0.000002   0.000008   0.000198
     8  C    0.000010  -0.000000   0.000004  -0.000000   0.000000   0.000015
     9  C    0.000364   0.000035  -0.000314   0.000000  -0.000004  -0.000047
    10  C    0.002902  -0.000101  -0.000004   0.000000  -0.000000  -0.000004
    11  C   -0.037421   0.002706   0.000633   0.000006   0.000000  -0.000007
    12  C    0.421792  -0.036532  -0.036303   0.000527   0.000039  -0.000163
    13  C    4.989845   0.535468  -0.033283   0.002953  -0.000120   0.000049
    14  C    0.535468   4.984567   0.423897  -0.038183   0.002789   0.000485
    15  C   -0.033283   0.423897   4.904252   0.404129  -0.033674  -0.038002
    16  C    0.002953  -0.038183   0.404129   4.993555   0.519452  -0.033477
    17  C   -0.000120   0.002789  -0.033674   0.519452   4.999370   0.438233
    18  C    0.000049   0.000485  -0.038002  -0.033477   0.438233   4.838074
    19  C    0.000000   0.000006   0.000204   0.002781  -0.034382   0.407491
    20  C   -0.000000   0.000000   0.000065  -0.000132   0.002717  -0.032396
    21  H   -0.000000  -0.000000   0.000000   0.000000   0.000000  -0.000000
    22  H   -0.000063   0.000001  -0.000000   0.000000   0.000000   0.000000
    23  H   -0.000968  -0.000053   0.000011  -0.000000  -0.000000   0.000000
    24  H    0.355471  -0.023830   0.001954  -0.000072   0.000001  -0.000000
    25  H   -0.023693   0.356182  -0.027356  -0.000878  -0.000052   0.000010
    26  H   -0.000044  -0.000634  -0.025706   0.355573  -0.024976   0.002164
    27  H    0.000001  -0.000066   0.001881  -0.024130   0.355715  -0.025352
    28  H   -0.000000  -0.000000   0.000013  -0.000054  -0.000966  -0.026576
    29  H    0.000000   0.000000  -0.000000   0.000001  -0.000052   0.001870
    30  H   -0.000000  -0.000000  -0.000000  -0.000000  -0.000000  -0.000000
              19         20         21         22         23         24
     1  C   -0.056138  -0.045929   0.000206  -0.000270  -0.000008   0.000006
     2  C    0.000275   0.013277  -0.000886   0.003387   0.001210  -0.000321
     3  C   -0.000979  -0.001055  -0.000305   0.001212   0.004983   0.004798
     4  C    0.013401   0.000932   0.000017  -0.000012  -0.000269   0.001362
     5  C   -0.023010  -0.058069  -0.000012   0.000009   0.000005  -0.000003
     6  C   -0.033186   0.431463   0.001367   0.000001  -0.000000  -0.000000
     7  C    0.003034  -0.038018  -0.023004  -0.000002   0.000001  -0.000000
     8  C   -0.000079   0.001612   0.356328  -0.001313  -0.000079  -0.000000
     9  C    0.000046  -0.000362  -0.026495  -0.029974   0.002675   0.000011
    10  C    0.000000  -0.000001  -0.000928   0.361067  -0.026535  -0.000061
    11  C    0.000000   0.000000  -0.000017  -0.019202   0.354810  -0.001039
    12  C   -0.000003  -0.000008  -0.000004   0.002002  -0.026863  -0.026710
    13  C    0.000000  -0.000000  -0.000000  -0.000063  -0.000968   0.355471
    14  C    0.000006   0.000000  -0.000000   0.000001  -0.000053  -0.023830
    15  C    0.000204   0.000065   0.000000  -0.000000   0.000011   0.001954
    16  C    0.002781  -0.000132   0.000000   0.000000  -0.000000  -0.000072
    17  C   -0.034382   0.002717   0.000000   0.000000  -0.000000   0.000001
    18  C    0.407491  -0.032396  -0.000000   0.000000   0.000000  -0.000000
    19  C    4.986553   0.538092   0.000001  -0.000000   0.000000   0.000000
    20  C    0.538092   4.989138  -0.000025  -0.000000   0.000000   0.000000
    21  H    0.000001  -0.000025   0.419869   0.000461   0.000001   0.000000
    22  H   -0.000000  -0.000000   0.000461   0.482213  -0.001954  -0.000000
    23  H    0.000000   0.000000   0.000001  -0.001954   0.483549   0.001898
    24  H    0.000000   0.000000   0.000000  -0.000000   0.001898   0.486397
    25  H   -0.000000  -0.000000  -0.000000  -0.000000  -0.000000  -0.001953
    26  H   -0.000061   0.000001  -0.000000  -0.000000   0.000000  -0.000001
    27  H   -0.000828  -0.000071  -0.000000  -0.000000  -0.000000  -0.000000
    28  H    0.356587  -0.023580  -0.000000  -0.000000  -0.000000  -0.000000
    29  H   -0.018505   0.356824  -0.000001   0.000000  -0.000000  -0.000000
    30  H    0.000002   0.000002  -0.011502   0.000584   0.000001   0.000000
              25         26         27         28         29         30
     1  C    0.000008  -0.000012  -0.000356   0.001391   0.004329  -0.000071
     2  C   -0.000011   0.000006   0.000005  -0.000001  -0.000265  -0.000357
     3  C    0.001261  -0.000276  -0.000003   0.000004   0.000007  -0.000139
     4  C    0.004624   0.004676   0.001396  -0.000257  -0.000010   0.000018
     5  C   -0.000345   0.001040   0.004909   0.004813   0.000936   0.000018
     6  C    0.000000  -0.000000   0.000017   0.002257  -0.024263   0.001413
     7  C    0.000000   0.000000  -0.000000  -0.000084   0.000551  -0.027339
     8  C    0.000000   0.000000  -0.000000   0.000000  -0.000041   0.365363
     9  C   -0.000000  -0.000000  -0.000000  -0.000000   0.000011  -0.032096
    10  C    0.000001  -0.000000   0.000000   0.000000  -0.000000  -0.001532
    11  C   -0.000068  -0.000000   0.000000   0.000000  -0.000000   0.000045
    12  C    0.002098   0.000010  -0.000000  -0.000000   0.000000  -0.000018
    13  C   -0.023693  -0.000044   0.000001  -0.000000   0.000000  -0.000000
    14  C    0.356182  -0.000634  -0.000066  -0.000000   0.000000  -0.000000
    15  C   -0.027356  -0.025706   0.001881   0.000013  -0.000000  -0.000000
    16  C   -0.000878   0.355573  -0.024130  -0.000054   0.000001  -0.000000
    17  C   -0.000052  -0.024976   0.355715  -0.000966  -0.000052  -0.000000
    18  C    0.000010   0.002164  -0.025352  -0.026576   0.001870  -0.000000
    19  C   -0.000000  -0.000061  -0.000828   0.356587  -0.018505   0.000002
    20  C   -0.000000   0.000001  -0.000071  -0.023580   0.356824   0.000002
    21  H   -0.000000  -0.000000  -0.000000  -0.000000  -0.000001  -0.011502
    22  H   -0.000000  -0.000000  -0.000000  -0.000000   0.000000   0.000584
    23  H   -0.000000   0.000000  -0.000000  -0.000000  -0.000000   0.000001
    24  H   -0.001953  -0.000001  -0.000000  -0.000000  -0.000000   0.000000
    25  H    0.486855   0.001981  -0.000000   0.000000  -0.000000  -0.000000
    26  H    0.001981   0.472965  -0.001857  -0.000001  -0.000000  -0.000000
    27  H   -0.000000  -0.001857   0.478744   0.001798  -0.000001   0.000000
    28  H    0.000000  -0.000001   0.001798   0.471328  -0.001825  -0.000000
    29  H   -0.000000  -0.000000  -0.000001  -0.001825   0.452963  -0.000001
    30  H   -0.000000  -0.000000   0.000000  -0.000000  -0.000001   0.424300
          Atomic-Atomic Spin Densities.
               1          2          3          4          5          6
     1  C    0.074165   0.025165   0.000111   0.006094  -0.055919  -0.020726
     2  C    0.025165   0.035598  -0.005127   0.008052  -0.022228   0.005509
     3  C    0.000111  -0.005127   0.003837  -0.003993   0.005028  -0.000281
     4  C    0.006094   0.008052  -0.003993   0.004132  -0.015741  -0.000287
     5  C   -0.055919  -0.022228   0.005028  -0.015741   0.100081  -0.001868
     6  C   -0.020726   0.005509  -0.000281  -0.000287  -0.001868  -0.119825
     7  C   -0.022318  -0.034897   0.000694  -0.001108   0.011473   0.001267
     8  C    0.001258  -0.003992  -0.000189  -0.000026   0.000449   0.000407
     9  C   -0.000384  -0.000862  -0.000908  -0.001378   0.001777   0.001920
    10  C    0.000262  -0.004601   0.000551  -0.000038   0.000115  -0.000043
    11  C   -0.000096   0.001115   0.000966  -0.000003  -0.000027   0.000002
    12  C   -0.000231  -0.000157   0.002819  -0.000289   0.000324  -0.000014
    13  C    0.000002  -0.000072  -0.000621  -0.000134   0.000006  -0.000000
    14  C    0.000027  -0.000019  -0.000383  -0.001052   0.000062   0.000000
    15  C    0.000094   0.000357  -0.000189  -0.000118  -0.000927   0.000031
    16  C   -0.000167  -0.000003   0.000038   0.001584  -0.000882  -0.000007
    17  C   -0.000429   0.000013   0.000028   0.000856  -0.000564   0.000065
    18  C    0.001822  -0.000530   0.000305  -0.000863  -0.003365   0.002025
    19  C    0.001601  -0.000031  -0.000014  -0.000352   0.000754   0.002442
    20  C   -0.008376  -0.000637   0.000051   0.000022   0.003910   0.003435
    21  H   -0.000007  -0.000241   0.000007  -0.000001   0.000006  -0.000298
    22  H   -0.000001  -0.000027   0.000001   0.000000  -0.000000  -0.000001
    23  H    0.000004  -0.000000  -0.000051  -0.000008   0.000001  -0.000000
    24  H   -0.000000   0.000000   0.000003   0.000001   0.000000  -0.000000
    25  H   -0.000000   0.000000   0.000009   0.000052  -0.000005   0.000000
    26  H   -0.000001  -0.000000  -0.000001   0.000029  -0.000011   0.000000
    27  H    0.000008   0.000000  -0.000000  -0.000013   0.000055  -0.000001
    28  H   -0.000062  -0.000001  -0.000000  -0.000003   0.000052  -0.000013
    29  H    0.001335   0.000043  -0.000001   0.000005  -0.000377  -0.002338
    30  H    0.000018  -0.000416   0.000010  -0.000003   0.000017  -0.000371
               7          8          9         10         11         12
     1  C   -0.022318   0.001258  -0.000384   0.000262  -0.000096  -0.000231
     2  C   -0.034897  -0.003992  -0.000862  -0.004601   0.001115  -0.000157
     3  C    0.000694  -0.000189  -0.000908   0.000551   0.000966   0.002819
     4  C   -0.001108  -0.000026  -0.001378  -0.000038  -0.000003  -0.000289
     5  C    0.011473   0.000449   0.001777   0.000115  -0.000027   0.000324
     6  C    0.001267   0.000407   0.001920  -0.000043   0.000002  -0.000014
     7  C    1.336735  -0.038992  -0.012953   0.001892  -0.000034   0.000029
     8  C   -0.038992  -0.015598  -0.005522   0.000118  -0.000099  -0.000025
     9  C   -0.012953  -0.005522   0.053635  -0.013471   0.001308   0.000635
    10  C    0.001892   0.000118  -0.013471   0.028306   0.001212   0.000050
    11  C   -0.000034  -0.000099   0.001308   0.001212  -0.034843  -0.005619
    12  C    0.000029  -0.000025   0.000635   0.000050  -0.005619  -0.011841
    13  C   -0.000000  -0.000000  -0.000026  -0.000010   0.000434   0.001760
    14  C   -0.000000  -0.000000  -0.000000  -0.000003   0.000049   0.000760
    15  C   -0.000010  -0.000000  -0.000038   0.000002  -0.000010  -0.000257
    16  C    0.000001   0.000000   0.000002  -0.000000  -0.000000  -0.000008
    17  C   -0.000001  -0.000000  -0.000000   0.000000  -0.000000  -0.000003
    18  C   -0.000142  -0.000009   0.000006   0.000000   0.000000   0.000017
    19  C    0.000096   0.000011  -0.000007  -0.000000   0.000000   0.000000
    20  C   -0.007686   0.000093   0.000050   0.000001  -0.000000   0.000000
    21  H   -0.005241   0.005253  -0.001869   0.000302  -0.000007  -0.000002
    22  H   -0.000005   0.000019  -0.000094   0.000167   0.000018   0.000007
    23  H    0.000001   0.000002   0.000012  -0.000336   0.000346  -0.000084
    24  H    0.000000   0.000000   0.000000  -0.000000  -0.000003   0.000045
    25  H    0.000000  -0.000000   0.000000  -0.000000  -0.000000  -0.000001
    26  H    0.000000   0.000000   0.000000  -0.000000   0.000000   0.000000
    27  H   -0.000000   0.000000  -0.000000  -0.000000   0.000000   0.000000
    28  H   -0.000003   0.000000   0.000000   0.000000   0.000000  -0.000000
    29  H    0.001801  -0.000034   0.000002  -0.000000   0.000000  -0.000000
    30  H   -0.006750   0.007553  -0.002941   0.000387  -0.000017  -0.000003
              13         14         15         16         17         18
     1  C    0.000002   0.000027   0.000094  -0.000167  -0.000429   0.001822
     2  C   -0.000072  -0.000019   0.000357  -0.000003   0.000013  -0.000530
     3  C   -0.000621  -0.000383  -0.000189   0.000038   0.000028   0.000305
     4  C   -0.000134  -0.001052  -0.000118   0.001584   0.000856  -0.000863
     5  C    0.000006   0.000062  -0.000927  -0.000882  -0.000564  -0.003365
     6  C   -0.000000   0.000000   0.000031  -0.000007   0.000065   0.002025
     7  C   -0.000000  -0.000000  -0.000010   0.000001  -0.000001  -0.000142
     8  C   -0.000000  -0.000000  -0.000000   0.000000  -0.000000  -0.000009
     9  C   -0.000026  -0.000000  -0.000038   0.000002  -0.000000   0.000006
    10  C   -0.000010  -0.000003   0.000002  -0.000000   0.000000   0.000000
    11  C    0.000434   0.000049  -0.000010  -0.000000  -0.000000   0.000000
    12  C    0.001760   0.000760  -0.000257  -0.000008  -0.000003   0.000017
    13  C    0.007929  -0.001416   0.000029  -0.000005   0.000001  -0.000005
    14  C   -0.001416  -0.017013   0.000472   0.000976   0.000039  -0.000042
    15  C    0.000029   0.000472   0.011377   0.001415  -0.000193  -0.000399
    16  C   -0.000005   0.000976   0.001415  -0.057308  -0.007328   0.002391
    17  C    0.000001   0.000039  -0.000193  -0.007328   0.012081   0.009476
    18  C   -0.000005  -0.000042  -0.000399   0.002391   0.009476  -0.024037
    19  C   -0.000000  -0.000000   0.000017   0.000094   0.001099  -0.012692
    20  C    0.000000  -0.000000  -0.000006   0.000000  -0.000097  -0.001713
    21  H   -0.000000   0.000000  -0.000000   0.000000  -0.000000  -0.000000
    22  H    0.000000   0.000000  -0.000000  -0.000000   0.000000   0.000000
    23  H    0.000020   0.000002  -0.000000   0.000000  -0.000000   0.000000
    24  H   -0.000118   0.000019  -0.000000   0.000000  -0.000000   0.000000
    25  H   -0.000111   0.000047  -0.000048   0.000017  -0.000001   0.000001
    26  H   -0.000001   0.000004  -0.000182   0.000435  -0.000141   0.000007
    27  H    0.000000   0.000001   0.000016   0.000009  -0.000142   0.000018
    28  H   -0.000000  -0.000000   0.000000   0.000000   0.000060  -0.000269
    29  H    0.000000   0.000000   0.000000  -0.000000   0.000001   0.000185
    30  H    0.000000   0.000000  -0.000000  -0.000000  -0.000000   0.000000
              19         20         21         22         23         24
     1  C    0.001601  -0.008376  -0.000007  -0.000001   0.000004  -0.000000
     2  C   -0.000031  -0.000637  -0.000241  -0.000027  -0.000000   0.000000
     3  C   -0.000014   0.000051   0.000007   0.000001  -0.000051   0.000003
     4  C   -0.000352   0.000022  -0.000001   0.000000  -0.000008   0.000001
     5  C    0.000754   0.003910   0.000006  -0.000000   0.000001   0.000000
     6  C    0.002442   0.003435  -0.000298  -0.000001  -0.000000  -0.000000
     7  C    0.000096  -0.007686  -0.005241  -0.000005   0.000001   0.000000
     8  C    0.000011   0.000093   0.005253   0.000019   0.000002   0.000000
     9  C   -0.000007   0.000050  -0.001869  -0.000094   0.000012   0.000000
    10  C   -0.000000   0.000001   0.000302   0.000167  -0.000336  -0.000000
    11  C    0.000000  -0.000000  -0.000007   0.000018   0.000346  -0.000003
    12  C    0.000000   0.000000  -0.000002   0.000007  -0.000084   0.000045
    13  C   -0.000000   0.000000  -0.000000   0.000000   0.000020  -0.000118
    14  C   -0.000000  -0.000000   0.000000   0.000000   0.000002   0.000019
    15  C    0.000017  -0.000006  -0.000000  -0.000000  -0.000000  -0.000000
    16  C    0.000094   0.000000   0.000000  -0.000000   0.000000   0.000000
    17  C    0.001099  -0.000097  -0.000000   0.000000  -0.000000  -0.000000
    18  C   -0.012692  -0.001713  -0.000000   0.000000   0.000000   0.000000
    19  C   -0.054041   0.007290   0.000000  -0.000000   0.000000   0.000000
    20  C    0.007290   0.061275  -0.000003  -0.000000  -0.000000  -0.000000
    21  H    0.000000  -0.000003   0.002841  -0.000019   0.000000   0.000000
    22  H   -0.000000  -0.000000  -0.000019  -0.000392   0.000004  -0.000000
    23  H    0.000000  -0.000000   0.000000   0.000004   0.002662   0.000004
    24  H    0.000000  -0.000000   0.000000  -0.000000   0.000004  -0.000254
    25  H    0.000000  -0.000000   0.000000   0.000000   0.000000   0.000007
    26  H   -0.000000   0.000000   0.000000   0.000000   0.000000   0.000000
    27  H   -0.000046   0.000001  -0.000000  -0.000000  -0.000000  -0.000000
    28  H    0.000513   0.000034   0.000000  -0.000000   0.000000   0.000000
    29  H    0.000006  -0.002923  -0.000001   0.000000  -0.000000  -0.000000
    30  H    0.000000   0.000010  -0.000047  -0.000012   0.000000  -0.000000
              25         26         27         28         29         30
     1  C   -0.000000  -0.000001   0.000008  -0.000062   0.001335   0.000018
     2  C    0.000000  -0.000000   0.000000  -0.000001   0.000043  -0.000416
     3  C    0.000009  -0.000001  -0.000000  -0.000000  -0.000001   0.000010
     4  C    0.000052   0.000029  -0.000013  -0.000003   0.000005  -0.000003
     5  C   -0.000005  -0.000011   0.000055   0.000052  -0.000377   0.000017
     6  C    0.000000   0.000000  -0.000001  -0.000013  -0.002338  -0.000371
     7  C    0.000000   0.000000  -0.000000  -0.000003   0.001801  -0.006750
     8  C   -0.000000   0.000000   0.000000   0.000000  -0.000034   0.007553
     9  C    0.000000   0.000000  -0.000000   0.000000   0.000002  -0.002941
    10  C   -0.000000  -0.000000  -0.000000   0.000000  -0.000000   0.000387
    11  C   -0.000000   0.000000   0.000000   0.000000   0.000000  -0.000017
    12  C   -0.000001   0.000000   0.000000  -0.000000  -0.000000  -0.000003
    13  C   -0.000111  -0.000001   0.000000  -0.000000   0.000000   0.000000
    14  C    0.000047   0.000004   0.000001  -0.000000   0.000000   0.000000
    15  C   -0.000048  -0.000182   0.000016   0.000000   0.000000  -0.000000
    16  C    0.000017   0.000435   0.000009   0.000000  -0.000000  -0.000000
    17  C   -0.000001  -0.000141  -0.000142   0.000060   0.000001  -0.000000
    18  C    0.000001   0.000007   0.000018  -0.000269   0.000185   0.000000
    19  C    0.000000  -0.000000  -0.000046   0.000513   0.000006   0.000000
    20  C   -0.000000   0.000000   0.000001   0.000034  -0.002923   0.000010
    21  H    0.000000   0.000000  -0.000000   0.000000  -0.000001  -0.000047
    22  H    0.000000   0.000000  -0.000000  -0.000000   0.000000  -0.000012
    23  H    0.000000   0.000000  -0.000000   0.000000  -0.000000   0.000000
    24  H    0.000007   0.000000  -0.000000   0.000000  -0.000000  -0.000000
    25  H    0.000973   0.000010  -0.000000   0.000000  -0.000000   0.000000
    26  H    0.000010   0.002820   0.000008   0.000000  -0.000000   0.000000
    27  H   -0.000000   0.000008  -0.000312  -0.000004   0.000000  -0.000000
    28  H    0.000000   0.000000  -0.000004   0.002515  -0.000120   0.000000
    29  H   -0.000000  -0.000000   0.000000  -0.000120   0.002876  -0.000001
    30  H    0.000000   0.000000  -0.000000   0.000000  -0.000001   0.004403
 Mulliken charges and spin densities:
               1          2
     1  C   -0.218880   0.003250
     2  C   -0.021513   0.002012
     3  C   -0.139450   0.002698
     4  C   -0.177273  -0.004581
     5  C   -0.157210   0.022196
     6  C    0.060699  -0.128971
     7  C    0.269859   1.223845
     8  C   -0.435792  -0.049323
     9  C    0.150163   0.018893
    10  C   -0.194178   0.014863
    11  C   -0.127063  -0.035306
    12  C    0.190545  -0.012085
    13  C   -0.143258   0.007662
    14  C   -0.136918  -0.017468
    15  C    0.154551   0.011431
    16  C   -0.116976  -0.058744
    17  C   -0.153379   0.014820
    18  C    0.226770  -0.027813
    19  C   -0.141301  -0.053259
    20  C   -0.134478   0.054732
    21  H    0.284931   0.000675
    22  H    0.201856  -0.000335
    23  H    0.207583   0.002578
    24  H    0.202092  -0.000295
    25  H    0.201337   0.000952
    26  H    0.215151   0.002978
    27  H    0.208197  -0.000403
    28  H    0.215152   0.002701
    29  H    0.227474   0.000460
    30  H    0.281310   0.001839
 Sum of Mulliken charges =   1.00000   1.00000
 Mulliken charges and spin densities with hydrogens summed into heavy atoms:
               1          2
     1  C   -0.218880   0.003250
     2  C   -0.021513   0.002012
     3  C   -0.139450   0.002698
     4  C   -0.177273  -0.004581
     5  C   -0.157210   0.022196
     6  C    0.060699  -0.128971
     7  C    0.269859   1.223845
     8  C    0.130449  -0.046809
     9  C    0.150163   0.018893
    10  C    0.007678   0.014528
    11  C    0.080520  -0.032728
    12  C    0.190545  -0.012085
    13  C    0.058834   0.007367
    14  C    0.064419  -0.016516
    15  C    0.154551   0.011431
    16  C    0.098175  -0.055766
    17  C    0.054819   0.014417
    18  C    0.226770  -0.027813
    19  C    0.073851  -0.050558
    20  C    0.092996   0.055192
 Electronic spatial extent (au):  <R**2>=           4106.9816
 Charge=              1.0000 electrons
 Dipole moment (field-independent basis, Debye):
    X=             -1.4948    Y=             -2.8282    Z=              0.8513  Tot=              3.3103
 Quadrupole moment (field-independent basis, Debye-Ang):
   XX=            -63.0166   YY=            -68.2556   ZZ=           -114.7951
   XY=              5.6122   XZ=              0.1012   YZ=              0.1763
 Traceless Quadrupole moment (field-independent basis, Debye-Ang):
   XX=             19.0059   YY=             13.7668   ZZ=            -32.7727
   XY=              5.6122   XZ=              0.1012   YZ=              0.1763
 Octapole moment (field-independent basis, Debye-Ang**2):
  XXX=            -10.3664  YYY=              0.3517  ZZZ=              1.0327  XYY=             -5.6646
  XXY=            -15.8636  XXZ=             11.5370  XZZ=             -6.5780  YZZ=             -7.1138
  YYZ=              9.3493  XYZ=             -1.7640
 Hexadecapole moment (field-independent basis, Debye-Ang**3):
 XXXX=          -2182.2586 YYYY=          -2227.5549 ZZZZ=           -131.5554 XXXY=             49.9500
 XXXZ=              3.5676 YYYX=             -7.0230 YYYZ=              5.0845 ZZZX=             -2.4027
 ZZZY=             -1.6704 XXYY=           -682.3841 XXZZ=           -520.4258 YYZZ=           -504.2178
 XXYZ=              2.4156 YYXZ=              7.0880 ZZXY=             18.9060
 N-N= 1.379390848153D+03 E-N=-4.518795504650D+03  KE= 7.637561788530D+02
                          Isotropic Fermi Contact Couplings
        Atom                 a.u.       MegaHertz       Gauss      10(-4) cm-1
     1  C(13)              0.03534      39.72465      14.17474      13.25072
     2  C(13)              0.00167       1.87397       0.66868       0.62509
     3  C(13)              0.00086       0.96657       0.34490       0.32241
     4  C(13)              0.00061       0.68972       0.24611       0.23007
     5  C(13)              0.01204      13.53515       4.82968       4.51484
     6  C(13)             -0.00696      -7.82011      -2.79041      -2.60851
     7  C(13)              0.38600     433.94166     154.84117     144.74736
     8  C(13)              0.01279      14.37866       5.13066       4.79620
     9  C(13)              0.03841      43.17847      15.40715      14.40279
    10  C(13)              0.00814       9.15292       3.26599       3.05309
    11  C(13)             -0.00079      -0.88935      -0.31734      -0.29665
    12  C(13)             -0.00032      -0.36310      -0.12956      -0.12112
    13  C(13)              0.00160       1.79508       0.64053       0.59877
    14  C(13)             -0.00179      -2.01348      -0.71846      -0.67163
    15  C(13)              0.00327       3.67947       1.31293       1.22734
    16  C(13)             -0.00564      -6.34065      -2.26250      -2.11501
    17  C(13)              0.00348       3.91433       1.39673       1.30568
    18  C(13)             -0.00149      -1.67582      -0.59797      -0.55899
    19  C(13)             -0.00630      -7.08596      -2.52845      -2.36362
    20  C(13)              0.01863      20.94588       7.47401       6.98679
    21  H(1)               0.00186       8.29406       2.95953       2.76660
    22  H(1)              -0.00000      -0.00285      -0.00102      -0.00095
    23  H(1)               0.00096       4.28624       1.52944       1.42974
    24  H(1)              -0.00010      -0.42805      -0.15274      -0.14278
    25  H(1)               0.00033       1.46858       0.52403       0.48987
    26  H(1)               0.00098       4.40133       1.57050       1.46812
    27  H(1)              -0.00015      -0.66528      -0.23739      -0.22191
    28  H(1)               0.00095       4.25957       1.51992       1.42084
    29  H(1)              -0.00003      -0.11693      -0.04172      -0.03900
    30  H(1)               0.00292      13.06059       4.66034       4.35654
 --------------------------------------------------------
       Center         ----  Spin Dipole Couplings  ----
                      3XX-RR        3YY-RR        3ZZ-RR
 --------------------------------------------------------
     1   Atom       -0.001519      0.076788     -0.075268
     2   Atom       -0.007460      0.014020     -0.006561
     3   Atom       -0.003950      0.003571      0.000379
     4   Atom        0.000055      0.007487     -0.007542
     5   Atom       -0.000825      0.001090     -0.000265
     6   Atom        0.084868      0.048654     -0.133522
     7   Atom       -0.620777      0.858103     -0.237327
     8   Atom        0.016383      0.015304     -0.031687
     9   Atom       -0.011548      0.082581     -0.071033
    10   Atom       -0.005532      0.003037      0.002495
    11   Atom        0.014832      0.024306     -0.039138
    12   Atom        0.004639      0.009478     -0.014117
    13   Atom       -0.004035     -0.001186      0.005221
    14   Atom        0.007371      0.008895     -0.016266
    15   Atom       -0.004757     -0.001617      0.006375
    16   Atom        0.027629      0.027216     -0.054845
    17   Atom       -0.001934     -0.006239      0.008173
    18   Atom        0.016965      0.012277     -0.029242
    19   Atom        0.028841      0.023344     -0.052184
    20   Atom        0.003701     -0.030342      0.026642
    21   Atom        0.018308     -0.009772     -0.008536
    22   Atom        0.001986      0.000078     -0.002064
    23   Atom       -0.000897      0.001312     -0.000415
    24   Atom       -0.000805      0.000924     -0.000119
    25   Atom        0.000252     -0.000284      0.000032
    26   Atom        0.000274     -0.000654      0.000380
    27   Atom        0.001268     -0.001319      0.000051
    28   Atom        0.001016     -0.000291     -0.000724
    29   Atom        0.007855     -0.001611     -0.006244
    30   Atom        0.015619     -0.008678     -0.006941
 --------------------------------------------------------
                        XY            XZ            YZ
 --------------------------------------------------------
     1   Atom        0.025557     -0.002754     -0.011358
     2   Atom        0.000656      0.001438     -0.002687
     3   Atom        0.000927     -0.000224     -0.000436
     4   Atom        0.000385      0.000222      0.000696
     5   Atom        0.015916     -0.001314      0.000573
     6   Atom        0.053609     -0.009477     -0.025904
     7   Atom        0.209673     -0.000800     -0.130953
     8   Atom       -0.045766      0.001657     -0.001842
     9   Atom        0.005168     -0.008398     -0.006246
    10   Atom       -0.009062      0.000819      0.001057
    11   Atom        0.000799     -0.004742      0.003789
    12   Atom       -0.000190     -0.001519      0.002310
    13   Atom       -0.000162      0.000127     -0.000576
    14   Atom        0.000267      0.000473      0.002197
    15   Atom        0.002681     -0.000801     -0.000914
    16   Atom        0.000230      0.006536      0.003940
    17   Atom        0.001537     -0.000323     -0.000215
    18   Atom        0.002624      0.005816     -0.001077
    19   Atom        0.002560      0.007893     -0.006237
    20   Atom       -0.003160     -0.002148      0.006459
    21   Atom       -0.009471      0.013290     -0.005026
    22   Atom       -0.003176     -0.000386      0.000157
    23   Atom        0.001997      0.000213     -0.000206
    24   Atom       -0.000336     -0.000018      0.000030
    25   Atom       -0.000502     -0.000079     -0.000096
    26   Atom       -0.003621     -0.000242     -0.000417
    27   Atom        0.000977      0.000017      0.000056
    28   Atom        0.004545     -0.000471      0.000392
[...]
 0.00002913,0.00003453,0.00002347,-0.00003306,-0.00003554,0.00000664,-0
 .00001498,0.00000263,-0.00000477,0.00000764,0.00000166,0.00001772,0.00
 064194,-0.00033115,0.00030226,-0.12132285,0.13477381,-0.00003324,-0.00
 018445,0.00026523,-0.00007879,0.00075249,0.00026356,-0.00101769,-0.002
 22333,0.00417440,0.00113112,0.00095293,-0.00008409,-0.00004886,0.00049
 897,-0.00082946,-0.00008585,0.00011714,-0.00016436,0.00007897,-0.00009
 466,-0.00000610,-0.00003731,0.00001515,0.00006203,0.00030248,-0.000504
 12,0.00002685,-0.00070484,0.00011809,-0.00027063,0.00153819,-0.0004481
 6,-0.00210572,-0.00909818,0.00294316,0.00032124,-0.08291695,0.05331756
 ,-0.07562750,-0.00134464,-0.00363950,0.00547139,-0.00332250,0.00003444
 ,0.00812358,-0.00033605,-0.00017868,-0.00009902,-0.00014196,0.00027657
 ,-0.00044260,0.00015540,0.00008703,0.00012625,-0.00002666,-0.00003897,
 0.00002936,0.00000663,0.00002935,-0.00003468,-0.00001140,0.00001154,0.
 00000276,-0.00001824,0.00005550,0.00015059,-0.00026777,-0.00011494,0.0
 0047300,0.09387396,-0.05172444,0.06525213,-0.00035747,0.00010409,-0.00
 004088,-0.00014647,-0.00014354,0.00024537,0.00014917,0.00099191,0.0003
 4854,-0.00271976,0.00293935,-0.00141993,0.00000620,-0.00065988,-0.0007
 1794,0.00002256,-0.00003592,0.00015032,0.00000023,0.00003972,-0.000022
 34,-0.00003936,-0.00007156,-0.00000265,0.00006754,0.00015080,-0.000073
 30,0.00004644,0.00010151,0.00017208,0.00039962,0.00009043,0.00003441,0
 .00209106,0.00099705,-0.00301562,0.00435778,0.00312870,-0.00044538,-0.
 25829724,-0.11408230,-0.08223604,-0.01405737,-0.01363359,-0.00793484,0
 .00042601,-0.00064429,0.00069743,0.00037244,0.00019972,0.00014009,-0.0
 0021962,-0.00023766,-0.00004300,0.00011354,0.00006574,0.00001472,-0.00
 006857,-0.00004654,0.00000521,0.00000506,0.00000666,0.00000729,0.00002
 816,0.00000471,-0.00001614,0.00000811,-0.00004588,-0.00004962,-0.00010
 269,0.00001559,0.00246487,0.26826989,0.00032680,-0.00025754,-0.0000099
 5,0.00004169,0.00035039,-0.00007162,0.00044582,-0.00049096,0.00013765,
 0.00344388,-0.00196408,0.00071415,0.00061937,0.00071531,0.00036900,-0.
 00001489,0.00001734,-0.00003265,0.00001654,0.00001345,-0.00001255,-0.0
 0001766,0.00001534,-0.00002184,0.00014011,-0.00027826,0.00010747,-0.00
 026146,-0.00036271,0.00018373,-0.00112117,0.00027337,-0.00045787,0.001
 17699,-0.00488603,0.00075429,-0.02766364,-0.01283988,-0.01072087,-0.11
 234548,-0.12384569,-0.04449337,0.01689532,0.01164756,0.00703511,-0.000
 56334,0.00165652,0.00034429,-0.00033665,-0.00014814,-0.00010381,0.0000
 5798,0.00020387,0.00008326,-0.00011462,-0.00006568,-0.00000862,0.00003
 214,0.00007003,0.00000975,0.00000056,0.00000086,-0.00000082,-0.0001372
 9,-0.00001088,0.00002323,0.00001118,-0.00001633,-0.00000147,0.00010433
 ,0.00087885,-0.00002686,0.11989839,0.12967160,-0.00000397,0.00012300,0
 .00013522,-0.00003699,-0.00046199,-0.00081613,0.00099358,-0.00104221,0
 .00003496,-0.00098705,0.00259606,0.00416232,-0.00018748,-0.00061703,0.
 00028992,-0.00018510,-0.00000743,-0.00012232,0.00011379,0.00001560,0.0
 0004007,-0.00000215,-0.00000528,0.00001999,0.00013346,-0.00015016,0.00
 016229,-0.00018979,-0.00029014,-0.00050969,-0.00029813,0.00020098,-0.0
 0011795,-0.00324383,0.00046942,0.00813700,-0.00032818,0.00429461,0.005
 62495,-0.08108800,-0.04896581,-0.07259601,-0.00979479,-0.00318889,0.00
 004753,0.00150612,0.00030318,-0.00208809,-0.00059250,-0.00006123,-0.00
 022278,0.00034040,0.00035923,-0.00003865,-0.00006549,-0.00008598,0.000
 06480,0.00002322,0.00007142,-0.00000784,-0.00000287,-0.00000178,0.0000
 0645,-0.00002513,0.00000940,0.00003681,-0.00003092,0.00005504,0.000162
 64,0.00246009,-0.00025021,-0.00529865,0.09173868,0.04649492,0.06228723
 ,-0.00002952,-0.00027997,0.00012738,-0.00008797,0.00019611,-0.00003733
 ,0.00048373,0.00049326,0.00021467,0.00003756,0.00245635,0.00005635,0.0
 0026409,0.00071146,0.00029660,0.00002736,0.00023109,-0.00003368,-0.000
 01992,-0.00008056,-0.00001244,0.00004500,0.00004274,-0.00004484,0.0000
 2708,-0.00006687,0.00002043,-0.00002271,-0.00000140,0.00001855,-0.0000
 1615,0.00000020,-0.00002730,0.00010577,-0.00012821,0.00008202,-0.00012
 727,-0.00015263,-0.00005605,0.00107772,-0.00076706,0.00060097,0.009987
 67,0.00812007,0.00335874,-0.21077324,-0.12867341,-0.06798669,-0.017754
 58,-0.01887707,-0.01017957,-0.00389914,0.00275874,-0.00083456,0.000085
 17,-0.00100757,-0.00022657,-0.00044524,-0.00003974,0.00023101,-0.00002
 771,0.00000359,0.00000524,-0.00000254,-0.00000145,-0.00000042,0.000003
 91,0.00000557,0.00000485,0.00000744,-0.00001284,-0.00002809,-0.0003155
 1,-0.00064780,-0.00023122,0.22065979,-0.00032205,-0.00055227,0.0004028
 8,0.00002437,-0.00051018,-0.00010144,-0.00106041,-0.00013937,-0.000613
 34,0.00177820,-0.00481930,-0.00129747,0.00131467,0.00015360,0.00025837
 ,0.00020574,0.00023932,-0.00010547,-0.00001278,-0.00027769,-0.00000475
 ,0.00006490,0.00007579,-0.00001311,-0.00019006,0.00009113,0.00006820,0
 .00005988,-0.00007074,0.00005957,-0.00001555,-0.00003705,0.00005061,-0
 .00037658,0.00010558,-0.00010325,0.00039230,0.00040456,0.00013689,-0.0
 0063774,0.00095065,0.00054853,-0.02237515,-0.01150005,-0.01062232,-0.1
 3094760,-0.17218988,-0.06055486,0.01169247,0.01066907,0.00290147,0.003
 34123,0.00039812,-0.00297737,0.00033887,0.00057894,0.00031952,0.000185
 86,-0.00006032,0.00009878,-0.00004788,-0.00001066,0.00000550,0.0000035
 7,-0.00000738,-0.00001958,-0.00000809,-0.00003177,0.00000601,0.0000366
 0,-0.00001496,-0.00003001,0.00081631,-0.00034491,0.00018174,0.13604665
 ,0.17675648,-0.00046327,-0.00067548,-0.00100778,-0.00022528,0.00059075
 ,0.00010891,-0.00040225,0.00016686,-0.00015534,0.00128202,-0.00126428,
 0.00392034,0.00026982,0.00179047,-0.00005330,-0.00002777,0.00003150,0.
 00018215,-0.00001539,0.00003041,0.00005533,-0.00006613,0.00001624,0.00
 020984,0.00022839,-0.00057879,0.00011351,-0.00054018,0.00010534,-0.000
 18962,0.00024942,0.00037998,-0.00003822,0.00041491,-0.00020159,0.00004
 770,-0.00025388,-0.00043236,-0.00022677,0.00089551,0.00109618,-0.00201
 487,-0.00625219,-0.00785072,0.00278743,-0.07210916,-0.05767053,-0.0750
 0263,0.00413458,-0.00296540,0.00704960,-0.00127261,-0.00389527,0.00834
 554,-0.00013313,-0.00000996,-0.00064132,-0.00027380,-0.00000175,-0.000
 50313,0.00005891,0.00002444,-0.00004225,-0.00000913,0.00001616,0.00003
 334,0.00000481,-0.00000592,0.00000916,-0.00003914,0.00000561,0.0001353
 0,0.00005065,-0.00027330,0.00045252,0.07389641,0.06938477,0.06123788,0
 .00074683,-0.00048648,-0.00066619,-0.00014569,-0.00061029,0.00023744,0
 .00015160,-0.00031147,0.00001800,-0.00072928,-0.00012268,0.00003873,-0
 .00433829,-0.00286432,-0.00110645,0.00009494,-0.00018669,0.00003908,0.
 00002514,0.00021529,-0.00003418,-0.00002568,-0.00007061,0.00000012,0.0
 0009428,0.00029449,-0.00008634,0.00022975,-0.00006861,0.00004634,-0.00
 009416,-0.00016422,0.00007933,-0.00019897,0.00005529,-0.00007207,-0.00
 036001,0.00026209,-0.00012338,0.00066655,0.00103803,0.00044607,-0.0048
 5529,0.00074897,-0.00153076,-0.00405217,0.03073606,0.01013653,-0.06845
 986,0.04744148,0.01565264,0.00776659,-0.02514931,-0.00932426,0.0017940
 1,-0.00002406,-0.00007638,-0.00001013,0.00044522,0.00006700,0.00002308
 ,0.00000338,0.00000774,0.00002117,-0.00001494,-0.00001130,-0.00000269,
 -0.00000301,-0.00001101,0.00003100,0.00013469,-0.00002658,-0.00000661,
 -0.00000881,-0.00001825,0.00077385,-0.00028432,0.00062072,0.07124465,0
 .00067751,0.00052268,-0.00071096,-0.00001541,-0.00059817,0.00010605,-0
 .00005042,-0.00017246,0.00013254,-0.00048557,0.00040624,0.00046565,-0.
 00296110,-0.00072734,-0.00114511,-0.00010701,-0.00035117,0.00013897,0.
 00001781,0.00026963,-0.00000530,-0.00005848,-0.00010966,-0.00001856,0.
 00004271,0.00041671,-0.00007383,0.00029316,-0.00004293,0.00006745,-0.0
 0012695,-0.00020876,0.00006458,0.00000154,0.00018434,-0.00003968,0.000
 01815,-0.00002829,0.00019933,-0.00008944,0.00003856,-0.00010329,0.0011
 3724,0.00209780,-0.00248489,-0.00036020,-0.00488140,-0.00355885,0.0484
 2075,-0.31558873,-0.09178496,0.00624379,-0.01086661,-0.00532246,0.0000
 7119,0.00025142,0.00089293,-0.00000399,0.00029008,0.00005180,0.0000270
 7,0.00000510,0.00001259,0.00001341,-0.00002354,-0.00002790,0.00000108,
 -0.00000402,-0.00001230,-0.00000752,-0.00001456,-0.00000668,0.00004635
 ,-0.00000314,-0.00004611,-0.00024175,0.00008040,0.00225040,-0.05169340
 ,0.32929277,0.00048988,-0.00114990,0.00040420,-0.00037086,0.00048573,0
 .00003771,0.00023415,0.00026225,-0.00067987,0.00112475,0.00055514,-0.0
 0035167,-0.00187345,-0.00021076,0.00471910,-0.00009210,0.00024002,-0.0
 0013525,-0.00002576,0.00002354,0.00007440,0.00002078,0.00003758,-0.000
 03827,0.00017127,-0.00057907,0.00002704,-0.00047552,0.00010629,-0.0001
 2350,0.00027838,0.00036666,-0.00010118,0.00018048,-0.00031212,0.000226
 57,0.00023361,-0.00017668,-0.00044650,-0.00031958,-0.00030037,-0.00009
 606,-0.00139086,-0.00249014,0.00789726,-0.00382428,0.00087917,0.005045
 50,0.02039948,-0.09207757,-0.07136573,-0.00057412,-0.00996557,0.000172
 54,0.00005148,0.00167191,-0.00246130,-0.00013419,-0.00042229,-0.000062
 58,-0.00004326,0.00001855,0.00000404,-0.00000782,0.00003204,0.00008087
 ,-0.00000235,0.00001325,0.00002358,-0.00001437,-0.00002192,0.00003407,
 -0.00004981,-0.00001115,0.00015193,0.00081405,0.00210339,-0.00510190,-
 0.01455548,0.10105554,0.06144519,-0.00117470,-0.00096878,0.00012589,-0
 .00002230,0.00022900,-0.00020846,-0.00040120,0.00005081,0.00007969,0.0
 0016337,0.00124655,0.00068610,-0.00519531,-0.00001772,0.00100769,-0.00
 176846,-0.00348328,0.00246802,0.00083390,-0.00094569,-0.00011113,-0.00
 009107,-0.00015731,-0.00001687,-0.00020888,-0.00016567,0.00005806,-0.0
 0001263,0.00004527,-0.00004097,-0.00002608,0.00002084,-0.00004762,0.00
 004094,0.00005057,-0.00009012,0.00002680,0.00010515,0.00000726,0.00004
 550,-0.00015943,-0.00004227,0.00012020,0.00032619,0.00009200,0.0002465
 1,-0.00045751,-0.00010977,0.00147838,0.00048261,-0.00026830,-0.0060157
 2,0.02835175,0.00995991,-0.09398954,0.09210281,0.03063914,0.00958350,-
 0.02207597,-0.00555676,0.00004666,-0.00006716,0.00000134,-0.00000866,0
 .00000943,0.00000428,0.00000609,0.00002423,0.00001456,-0.00000545,-0.0
 0000233,0.00000506,-0.00002638,0.00001505,-0.00000880,-0.00001744,-0.0
 0003389,0.00000743,-0.00038154,-0.00077454,-0.00026558,0.09634820,-0.0
 0014585,0.00066882,0.00024070,0.00011417,-0.00011199,0.00010168,-0.000
 01210,-0.00005202,-0.00004721,-0.00026469,0.00020258,-0.00003482,-0.00
 069573,0.00078708,0.00000935,-0.00334229,-0.00083314,-0.00139786,0.000
 36890,-0.00044335,-0.00043590,-0.00005237,-0.00006259,0.00035172,0.000
 02846,0.00007913,-0.00003056,0.00000431,0.00000514,0.00001395,0.000010
 09,0.00002896,-0.00000078,-0.00001819,-0.00002013,0.00002558,0.0000101
 4,0.00000966,0.00001177,0.00000273,-0.00001185,0.00001162,0.00007736,-
 0.00001566,0.00004241,0.00001941,-0.00002167,-0.00002826,0.00056280,0.
 00074198,0.00066080,-0.00272518,0.00282508,-0.00005344,0.08981643,-0.2
 9662226,-0.07678408,0.00921969,-0.01812110,-0.00746719,-0.00003283,0.0
 0004589,0.00000709,-0.00000157,-0.00000315,-0.00000067,0.00000531,-0.0
 0000501,-0.00001200,0.00000341,-0.00000197,-0.00000462,0.00000462,0.00
 000246,-0.00000001,0.00001594,0.00001448,-0.00003757,0.00067316,-0.000
 25578,-0.00012843,-0.09407756,0.31066710,-0.00085053,0.00014290,-0.000
 30059,-0.00012698,-0.00020136,-0.00064951,0.00018071,-0.00009886,0.000
 14162,-0.00012586,-0.00031976,0.00007037,0.00172212,0.00079383,0.00371
 380,0.00227893,-0.00158750,0.00894654,0.00065412,0.00018560,0.00071846
 ,-0.00029518,-0.00034927,-0.00085339,-0.00016826,0.00004844,0.00009079
 ,0.00006833,-0.00002695,-0.00001465,-0.00009505,-0.00008375,-0.0000056
 7,0.00005364,0.00009337,-0.00012719,0.00001855,0.00002258,-0.00002417,
 0.00000604,-0.00007372,0.00005520,-0.00007234,0.00025951,-0.00005706,0
 .00035498,-0.00037545,-0.00021381,-0.00091838,0.00105980,-0.00192578,0
 .00551128,-0.00762354,0.00130836,0.02719129,-0.07947232,-0.06608593,0.
 00274265,0.00297353,0.00613039,0.00014738,-0.00018626,0.00002529,-0.00
 000375,0.00000883,-0.00000137,-0.00000871,0.00001752,0.00005581,-0.000
 00451,-0.00000024,-0.00000104,0.00000644,-0.00000535,0.00000521,-0.000
 01066,-0.00003530,0.00013478,0.00023410,-0.00003515,0.00044043,-0.0365
 6864,0.08349362,0.05435369,0.00091631,0.00093765,-0.00008510,0.0001726
 3,-0.00016412,0.00051833,-0.00002562,0.00019078,0.00003651,0.00031417,
 -0.00002396,-0.00008396,0.00013291,-0.00057804,-0.00038233,-0.00254999
 ,-0.00174015,0.00146686,-0.00022177,0.00062811,-0.00019526,-0.00009740
 ,0.00002482,0.00002984,0.00012544,0.00005961,-0.00004632,-0.00006895,-
 0.00001655,-0.00004684,0.00003704,0.00004692,-0.00001051,0.00013004,-0
 .00006340,-0.00002674,-0.00003467,-0.00011519,-0.00002460,-0.00008467,
 0.00009045,-0.00000589,0.00003461,-0.00032842,-0.00009309,-0.00034110,
 0.00011117,-0.00018416,0.00013024,0.00055209,0.00005745,0.00002828,-0.
 00260839,0.00225158,-0.01213613,0.00427889,0.00609895,-0.32945659,0.03
 648187,0.08512736,0.00001512,0.00001145,-0.00001880,0.00000150,0.00000
 401,0.00000371,-0.00000415,0.00000365,0.00000988,-0.00000788,-0.000000
 03,0.00001266,-0.00000005,-0.00000086,0.00000446,-0.00005825,0.0000239
 4,0.00004085,-0.00000812,-0.00004222,0.00003713,0.00037170,0.00037941,
 -0.00184441,0.34270872,0.00088959,-0.00625840,-0.00068834,0.00085490,0
 .00051937,-0.00076477,0.00017215,-0.00051536,0.00002364,-0.00018658,0.
 00015811,0.00006379,0.00016227,0.00030252,0.00031890,0.02827009,-0.001
 54480,-0.00893109,0.00011666,0.00178490,-0.00017588,-0.00030620,-0.000
 09978,0.00002678,-0.00000094,0.00023657,-0.00007860,0.00002434,-0.0000
 2502,0.00006402,-0.00002564,-0.00002897,0.00000051,-0.00008986,0.00011
 678,0.00002564,0.00006324,0.00013166,0.00003048,0.00011485,-0.00010013
 ,0.00003700,0.00000618,0.00024580,0.00007046,-0.00010907,-0.00050145,-
 0.00011068,-0.00098934,0.00076209,0.00042071,-0.00235550,-0.00405905,-
 0.00220020,-0.02717621,0.00592801,0.00739819,0.03836988,-0.06299526,-0
 .01330082,0.00002373,-0.00002122,-0.00000882,0.00001628,-0.00001501,0.
 00000561,-0.00000087,-0.00000341,-0.00000822,0.00001515,0.00001324,-0.
 00000291,0.00000025,-0.00000134,-0.00000974,-0.00009959,0.00006036,-0.
 00003446,0.00000981,0.00001183,-0.00002104,0.00037680,0.00058789,0.001
 25166,-0.03818171,0.06532518,-0.00062527,-0.00177821,0.00269161,0.0004
 0247,0.00054030,0.00104873,0.00016302,-0.00023136,0.00017087,0.0001822
 7,0.00038307,-0.00064804,0.00002023,0.00117061,-0.00042950,0.00582678,
 -0.00285362,0.00023806,-0.00042724,0.00046096,-0.00067817,-0.00002614,
 -0.00017123,-0.00007001,-0.00011630,-0.00002066,-0.00008676,0.00002946
 ,-0.00006540,-0.00008420,-0.00009046,-0.00002693,-0.00000409,0.0000637
 5,0.00008909,-0.00017926,0.00002498,0.00002135,-0.00005283,-0.00001651
 ,-0.00001457,0.00002958,-0.00001899,0.00006617,0.00007990,0.00017568,0
 .00024322,-0.00052539,0.00030938,-0.00007777,-0.00061763,0.00222381,-0
 .00192418,0.00919915,-0.00083462,-0.00345024,0.00670542,0.08706344,-0.
 01036102,-0.06560828,0.00014192,-0.00005912,-0.00002255,0.00000106,0.0
 0000969,0.00001060,0.00000297,0.00000651,0.00001382,-0.00001408,0.0000
 0709,0.00004486,-0.00000586,-0.00000067,-0.00000695,-0.00001800,-0.000
 06028,0.00016609,0.00001795,-0.00005913,0.00018119,-0.00180358,0.00151
 604,-0.00593752,-0.09265621,0.01658412,0.05440380,-0.00300381,0.001079
 98,0.00064791,-0.00533097,0.00019483,0.00083891,0.00039970,-0.00146094
 ,-0.00076253,-0.00044398,-0.00016554,-0.00020703,-0.00018929,-0.000033
 16,-0.00001065,0.00132224,0.00436430,0.00033944,0.00137905,0.00328583,
 -0.01446455,-0.04846446,-0.01067248,0.03779156,-0.00759364,-0.01593695
 ,0.02908573,0.00156589,-0.00094370,-0.00113802,0.00026000,-0.00004839,
 -0.00054321,-0.00005815,-0.00053926,0.00034224,0.00006784,0.00028104,-
 0.00000406,0.00001413,-0.00025425,-0.00004420,-0.00015352,-0.00010293,
 0.00021448,-0.00035556,0.00022388,0.00006363,0.00067088,-0.00000877,0.
 00007502,-0.00109829,-0.00001809,0.00008893,0.00099818,0.00057601,-0.0
 0029551,0.00084622,-0.00119304,0.00062113,0.00167631,0.00471848,-0.013
 16933,-0.00008034,0.00086138,0.00010945,-0.00007691,0.00013236,0.00022
 200,-0.00002717,-0.00002108,-0.00002375,-0.00000670,0.00000754,0.00000
 683,0.00001104,-0.00001346,-0.00007113,0.00000506,0.00000626,-0.000016
 01,0.00003361,0.00005204,-0.00007732,-0.00002338,0.00003532,0.00000408
 ,0.05765601,0.00056549,-0.00036051,0.00061092,-0.00105908,0.00158953,-
 0.00015847,0.00034867,0.00018343,0.00034287,-0.00021865,-0.00016256,-0
 .00004848,0.00024638,0.00042616,0.00012019,0.00370497,-0.00229596,-0.0
 0192906,-0.00214830,-0.02196264,0.02608031,-0.01384584,-0.09031538,0.1
 0781493,-0.00372543,-0.00092984,0.00165758,0.00156081,0.00076622,-0.00
 046494,-0.00070622,-0.00074665,0.00001133,-0.00002641,0.00046625,-0.00
 011387,-0.00007850,-0.00011423,0.00000039,-0.00004405,0.00007611,-0.00
 002553,0.00009168,0.00028035,0.00002732,0.00014315,-0.00010970,0.00000
 029,-0.00001912,-0.00006434,-0.00004986,0.00018279,-0.00013495,-0.0002
 0377,0.00031637,-0.00038800,0.00002199,-0.00127997,-0.00036592,-0.0008
 2304,0.00053808,0.00796034,-0.01809788,-0.00011887,-0.00020859,0.00030
 903,-0.00000699,-0.00001256,-0.00001692,-0.00000245,-0.00000033,0.0000
 1240,-0.00000073,-0.00000138,0.00000939,-0.00000385,-0.00001196,0.0000
 0828,0.00000529,0.00000899,0.00001596,-0.00005021,-0.00008460,0.000123
 59,0.00003821,-0.00001508,0.00005617,0.01559277,0.10652780,0.00098846,
 -0.00056126,-0.00015029,0.00050101,-0.00027889,-0.00029369,-0.00041230
 ,-0.00001447,0.00018972,0.00003632,0.00021776,-0.00009365,0.00018173,0
 .00011654,0.00003208,-0.00103665,-0.00279326,-0.00113589,-0.00130415,0
 .00318458,0.00216795,0.03835338,0.10290030,-0.24486127,-0.00025354,0.0
 0133896,-0.00391953,-0.00089029,-0.00005875,0.00057509,0.00035191,0.00
 029506,0.00011756,0.00008458,-0.00000705,-0.00000855,0.00001226,-0.000
 08847,-0.00001982,-0.00000423,0.00007965,0.00001526,-0.00002964,-0.000
 22408,-0.00003283,-0.00006188,0.00010385,0.00003672,0.00001234,0.00004
 792,0.00002097,0.00024216,-0.00015137,-0.00004148,-0.00028729,-0.00022
 054,0.00013542,-0.00025371,0.00035031,-0.00005894,0.00289078,0.0110999
 1,-0.02301462,0.00050443,-0.00003271,-0.00013963,0.00000107,-0.0000177
 2,-0.00000277,0.00000797,0.00000814,0.00000727,-0.00000275,-0.00000408
 ,0.00000322,0.00000014,0.00001234,-0.00001231,0.00000084,-0.00000267,-
 0.00000183,-0.00001759,-0.00002294,0.00000692,0.00000867,0.00001406,-0
 .00003250,-0.03962405,-0.11529113,0.27051141\\-0.00000309,0.,0.0000005
 3,-0.00000079,-0.00000124,0.00000039,0.00000140,0.00000052,0.00000065,
 -0.00000073,-0.00000098,-0.00000060,0.00000165,0.00000117,-0.00000044,
 0.00000267,-0.00000335,-0.00000164,-0.00000071,0.00000184,-0.00000036,
 -0.00000122,-0.00000241,-0.00000043,-0.00000116,0.00000111,-0.00000041
 ,0.00000227,-0.00000060,0.00000094,-0.00000218,-0.00000220,-0.00000048
 ,0.00000090,0.00000020,0.00000032,-0.00000057,0.00000046,0.00000253,0.
 00000055,-0.00000121,-0.00000048,0.00000143,0.00000124,0.00000178,-0.0
 0000026,0.00000015,-0.00000089,0.00000056,-0.00000046,-0.00000037,0.00
 000171,0.00000098,-0.00000065,-0.00000143,-0.00000107,-0.00000041,-0.0
 0000042,0.00000376,-0.00000079,0.00000030,0.00000094,-0.00000057,-0.00
 000106,0.00000019,0.00000044,-0.00000039,0.00000026,0.00000138,-0.0000
 0031,-0.00000060,0.00000109,-0.00000019,-0.00000015,0.00000116,0.00000
 036,-0.00000054,0.00000071,0.00000028,-0.00000007,-0.00000026,0.000000
 66,0.00000048,-0.00000110,0.00000015,0.00000017,-0.00000142,-0.0000004
 0,0.00000142,-0.00000063\\\@
 The archive entry for this job was punched.


 THE THINKER DIES, BUT HIS THOUGHTS ARE BEYOND THE 
 REACH OF DESTRUCTION.  MEN ARE MORTAL; BUT IDEAS 
 ARE IMMORTAL.
                              -- WALTER LIPPMANN
 Job cpu time:       0 days  0 hours 45 minutes 58.6 seconds.
 Elapsed time:       0 days  0 hours  2 minutes 57.8 seconds.
 File lengths (MBytes):  RWF=   1456 Int=      0 D2E=      0 Chk=     12 Scr=     32
 Normal termination of Gaussian 16 at Thu Jul 20 17:08:34 2023.
