 Entering Gaussian System, Link 0=g16
 Initial command:
 /sw/arch/RHEL8/EB_production/2022/software/Gaussian/g16.c02/l1.exe "/scratch-local/calessandra.3218501/calessandra/Gau-863293.inp" -scrdir="/scratch-local/calessandra.3218501/calessandra/"
 Entering Link 1 = /sw/arch/RHEL8/EB_production/2022/software/Gaussian/g16.c02/l1.exe PID=    863314.
  
 Copyright (c) 1988-2021, Gaussian, Inc.  All Rights Reserved.
  
 This is part of the Gaussian(R) 16 program.  It is based on
 the Gaussian(R) 09 system (copyright 2009, Gaussian, Inc.),
 the Gaussian(R) 03 system (copyright 2003, Gaussian, Inc.),
 the Gaussian(R) 98 system (copyright 1998, Gaussian, Inc.),
 the Gaussian(R) 94 system (copyright 1995, Gaussian, Inc.),
 the Gaussian 92(TM) system (copyright 1992, Gaussian, Inc.),
 the Gaussian 90(TM) system (copyright 1990, Gaussian, Inc.),
 the Gaussian 88(TM) system (copyright 1988, Gaussian, Inc.),
 the Gaussian 86(TM) system (copyright 1986, Carnegie Mellon
 University), and the Gaussian 82(TM) system (copyright 1983,
 Carnegie Mellon University). Gaussian is a federally registered
 trademark of Gaussian, Inc.
  
 This software contains proprietary and confidential information,
 including trade secrets, belonging to Gaussian, Inc.
  
 This software is provided under written license and may be
 used, copied, transmitted, or stored only in accord with that
 written license.
  
 The following legend is applicable only to US Government
 contracts under FAR:
  
                    RESTRICTED RIGHTS LEGEND
  
 Use, reproduction and disclosure by the US Government is
 subject to restrictions as set forth in subparagraphs (a)
 and (c) of the Commercial Computer Software - Restricted
 Rights clause in FAR 52.227-19.
  
 Gaussian, Inc.
 340 Quinnipiac St., Bldg. 40, Wallingford CT 06492
  
  
 ---------------------------------------------------------------
 Warning -- This program may not be used in any manner that
 competes with the business of Gaussian, Inc. or will provide
 assistance to any competitor of Gaussian, Inc.  The licensee
 of this program is prohibited from giving any competitor of
 Gaussian, Inc. access to this program.  By using this program,
 the user acknowledges that Gaussian, Inc. is engaged in the
 business of creating and licensing software in the field of
 computational chemistry and represents and warrants to the
 licensee that it is not a competitor of Gaussian, Inc. and that
 it will not use this program in any manner prohibited above.
 ---------------------------------------------------------------
  

 Cite this work as:
 Gaussian 16, Revision C.02,
 M. J. Frisch, G. W. Trucks, H. B. Schlegel, G. E. Scuseria, 
 M. A. Robb, J. R. Cheeseman, G. Scalmani, V. Barone, 
 G. A. Petersson, H. Nakatsuji, X. Li, M. Caricato, A. V. Marenich, 
 J. Bloino, B. G. Janesko, R. Gomperts, B. Mennucci, H. P. Hratchian, 
 J. V. Ortiz, A. F. Izmaylov, J. L. Sonnenberg, D. Williams-Young, 
 F. Ding, F. Lipparini, F. Egidi, J. Goings, B. Peng, A. Petrone, 
 T. Henderson, D. Ranasinghe, V. G. Zakrzewski, J. Gao, N. Rega, 
 G. Zheng, W. Liang, M. Hada, M. Ehara, K. Toyota, R. Fukuda, 
 J. Hasegawa, M. Ishida, T. Nakajima, Y. Honda, O. Kitao, H. Nakai, 
 T. Vreven, K. Throssell, J. A. Montgomery, Jr., J. E. Peralta, 
 F. Ogliaro, M. J. Bearpark, J. J. Heyd, E. N. Brothers, K. N. Kudin, 
 V. N. Staroverov, T. A. Keith, R. Kobayashi, J. Normand, 
 K. Raghavachari, A. P. Rendell, J. C. Burant, S. S. Iyengar, 
 J. Tomasi, M. Cossi, J. M. Millam, M. Klene, C. Adamo, R. Cammi, 
 J. W. Ochterski, R. L. Martin, K. Morokuma, O. Farkas, 
 J. B. Foresman, and D. J. Fox, Gaussian, Inc., Wallingford CT, 2019.
 
 ******************************************
 Gaussian 16:  ES64L-G16RevC.02  7-Dec-2021
                 4-Aug-2023 
 ******************************************
 %NProcShared=16
 Will use up to   16 processors via shared memory.
 %LindaWorkers=tcn455
 %Chk=cora+_ts_to_aliph.chk
 SetLPE:    new flags="-opt 'Tsnet.Node.lindarsharg: ssh'  -nodelist 'tcn455.local.snellius.surf.nl' -env GAUSS_MDEF=0 -env GAUSS_EXEDIR="/sw/arch/RHEL8/EB_production/2022/software/Gaussian/g16.c02/bsd:/sw/arch/RHEL8/EB_production/2022/software/Gaussian/g16.c02""
 Will use up to    1 processors via Linda.
 ----------------------------------------------------------------------
 #n M062x/6-31G(d) scf=novaracc Opt(ts,calcfc,noeigentest,modredundant)
  int=ultrafine freq=noraman
 ----------------------------------------------------------------------
 1/5=1,10=4,11=1,18=120,26=4,38=1/1,3;
 2/9=110,12=2,17=6,18=5,40=1/2;
 3/5=1,6=6,7=1,11=2,25=1,30=1,71=2,74=-55,75=-5,140=1/1,2,3;
 4//1;
 5/5=2,38=1/2;
 8/6=4,10=90,11=11/1;
 11/6=1,8=1,9=11,15=111,16=1/1,2,10;
 10/6=1,13=1/2;
 6/7=2,8=2,9=2,10=2,28=1/1;
 7/10=1,25=1/1,2,3,16;
 1/5=1,10=4,11=1,18=20,26=4/3(2);
 2/9=110/2;
 99//99;
 2/9=110/2;
 3/5=1,6=6,7=1,11=2,25=1,30=1,71=1,74=-55,75=-5/1,2,3;
 4/5=5,16=3,69=1/1;
 5/5=2,38=1/2;
 7//1,2,3,16;
 1/5=1,11=1,18=20,26=4/3(-5);
 2/9=110/2;
 6/7=2,8=2,9=2,10=2,19=2,28=1/1;
 99/9=1/99;
 -----------------------
 Corannulene ts to aliph
 -----------------------
 Symbolic Z-matrix:
 Charge =  1 Multiplicity = 2
 C                     0.3431   -1.15495  -0.56111 
 C                    -1.01054  -0.68479  -0.59623 
 C                    -0.9569    0.72826  -0.62338 
 C                     0.40858   1.11987  -0.62514 
 C                     1.20798  -0.05285  -0.60785 
 C                     0.75729  -2.4155   -0.05959 
 C                    -0.33276  -3.1841    0.27083 
 C                    -1.78728  -2.84426   0.2396 
 C                    -2.0739   -1.37814  -0.076 
 C                    -3.21378  -0.58542   0.28144 
 C                    -3.15889   0.80692   0.26239 
 C                    -1.95833   1.52486  -0.10646 
 C                    -1.54957   2.87392   0.23212 
 C                    -0.21635   3.25238   0.23397 
 C                     0.83926   2.32049  -0.1082 
 C                     2.24938   2.34431   0.24389 
 C                     3.03728   1.19834   0.25791 
 C                     2.49366  -0.09178  -0.08134 
 C                     2.99687  -1.41967   0.25002 
 C                     2.1811   -2.52714   0.25994 
 H                    -2.42368  -3.45712  -0.31767 
 H                    -4.11161  -1.06579   0.65312 
 H                    -4.0194    1.36013   0.62364 
 H                    -2.2932    3.58342   0.57738 
 H                     0.04329   4.24619   0.58104 
 H                     2.68962   3.27341   0.59113 
 H                     4.05803   1.27064   0.61468 
 H                     4.02761  -1.52637   0.5681 
 H                     2.57502  -3.48596   0.57285 
 H                    -1.18626  -3.30759   1.20721 
 
 The following ModRedundant input section has been read:
 

 GradGradGradGradGradGradGradGradGradGradGradGradGradGradGradGradGradGrad
 Berny optimization.
 Initialization pass.
                           ----------------------------
                           !    Initial Parameters    !
                           ! (Angstroms and Degrees)  !
 --------------------------                            --------------------------
 ! Name  Definition              Value          Derivative Info.                !
 --------------------------------------------------------------------------------
 ! R1    R(1,2)                  1.4334         calculate D2E/DX2 analytically  !
 ! R2    R(1,5)                  1.4017         calculate D2E/DX2 analytically  !
 ! R3    R(1,6)                  1.4185         calculate D2E/DX2 analytically  !
 ! R4    R(2,3)                  1.4143         calculate D2E/DX2 analytically  !
 ! R5    R(2,9)                  1.3719         calculate D2E/DX2 analytically  !
 ! R6    R(3,4)                  1.4205         calculate D2E/DX2 analytically  !
 ! R7    R(3,12)                 1.3801         calculate D2E/DX2 analytically  !
 ! R8    R(4,5)                  1.4194         calculate D2E/DX2 analytically  !
 ! R9    R(4,15)                 1.3763         calculate D2E/DX2 analytically  !
 ! R10   R(5,18)                 1.3899         calculate D2E/DX2 analytically  !
 ! R11   R(6,7)                  1.3741         calculate D2E/DX2 analytically  !
 ! R12   R(6,20)                 1.4635         calculate D2E/DX2 analytically  !
 ! R13   R(7,8)                  1.494          calculate D2E/DX2 analytically  !
 ! R14   R(7,30)                 1.273          calculate D2E/DX2 analytically  !
 ! R15   R(8,9)                  1.5268         calculate D2E/DX2 analytically  !
 ! R16   R(8,21)                 1.0446         calculate D2E/DX2 analytically  !
 ! R17   R(8,30)                 1.2297         calculate D2E/DX2 analytically  !
 ! R18   R(9,10)                 1.4337         calculate D2E/DX2 analytically  !
 ! R19   R(10,11)                1.3936         calculate D2E/DX2 analytically  !
 ! R20   R(10,22)                1.084          calculate D2E/DX2 analytically  !
 ! R21   R(11,12)                1.4467         calculate D2E/DX2 analytically  !
 ! R22   R(11,23)                1.0849         calculate D2E/DX2 analytically  !
 ! R23   R(12,13)                1.4497         calculate D2E/DX2 analytically  !
 ! R24   R(13,14)                1.3859         calculate D2E/DX2 analytically  !
 ! R25   R(13,24)                1.0842         calculate D2E/DX2 analytically  !
 ! R26   R(14,15)                1.4491         calculate D2E/DX2 analytically  !
 ! R27   R(14,25)                1.0842         calculate D2E/DX2 analytically  !
 ! R28   R(15,16)                1.4536         calculate D2E/DX2 analytically  !
 ! R29   R(16,17)                1.3908         calculate D2E/DX2 analytically  !
 ! R30   R(16,26)                1.0852         calculate D2E/DX2 analytically  !
 ! R31   R(17,18)                1.4405         calculate D2E/DX2 analytically  !
 ! R32   R(17,27)                1.0837         calculate D2E/DX2 analytically  !
 ! R33   R(18,19)                1.4582         calculate D2E/DX2 analytically  !
 ! R34   R(19,20)                1.3755         calculate D2E/DX2 analytically  !
 ! R35   R(19,28)                1.084          calculate D2E/DX2 analytically  !
 ! R36   R(20,29)                1.0828         calculate D2E/DX2 analytically  !
 ! A1    A(2,1,5)              108.9033         calculate D2E/DX2 analytically  !
 ! A2    A(2,1,6)              125.1627         calculate D2E/DX2 analytically  !
 ! A3    A(5,1,6)              122.0281         calculate D2E/DX2 analytically  !
 ! A4    A(1,2,3)              106.9994         calculate D2E/DX2 analytically  !
 ! A5    A(1,2,9)              123.8424         calculate D2E/DX2 analytically  !
 ! A6    A(3,2,9)              122.7935         calculate D2E/DX2 analytically  !
 ! A7    A(2,3,4)              108.1744         calculate D2E/DX2 analytically  !
 ! A8    A(2,3,12)             122.8184         calculate D2E/DX2 analytically  !
 ! A9    A(4,3,12)             122.6053         calculate D2E/DX2 analytically  !
 ! A10   A(3,4,5)              108.276          calculate D2E/DX2 analytically  !
 ! A11   A(3,4,15)             122.7398         calculate D2E/DX2 analytically  !
 ! A12   A(5,4,15)             122.6798         calculate D2E/DX2 analytically  !
 ! A13   A(1,5,4)              107.6089         calculate D2E/DX2 analytically  !
 ! A14   A(1,5,18)             122.4192         calculate D2E/DX2 analytically  !
 ! A15   A(4,5,18)             123.2813         calculate D2E/DX2 analytically  !
 ! A16   A(1,6,7)              110.5154         calculate D2E/DX2 analytically  !
 ! A17   A(1,6,20)             115.4083         calculate D2E/DX2 analytically  !
 ! A18   A(7,6,20)             132.5792         calculate D2E/DX2 analytically  !
 ! A19   A(6,7,8)              129.7958         calculate D2E/DX2 analytically  !
 ! A20   A(6,7,30)             139.7304         calculate D2E/DX2 analytically  !
 ! A21   A(7,8,9)              113.9223         calculate D2E/DX2 analytically  !
 ! A22   A(7,8,21)             118.088          calculate D2E/DX2 analytically  !
 ! A23   A(9,8,21)             109.7995         calculate D2E/DX2 analytically  !
 ! A24   A(9,8,30)             128.0385         calculate D2E/DX2 analytically  !
 ! A25   A(21,8,30)            119.768          calculate D2E/DX2 analytically  !
 ! A26   A(2,9,8)              114.7193         calculate D2E/DX2 analytically  !
 ! A27   A(2,9,10)             115.5534         calculate D2E/DX2 analytically  !
 ! A28   A(8,9,10)             128.9501         calculate D2E/DX2 analytically  !
 ! A29   A(9,10,11)            121.179          calculate D2E/DX2 analytically  !
 ! A30   A(9,10,22)            119.933          calculate D2E/DX2 analytically  !
 ! A31   A(11,10,22)           118.6908         calculate D2E/DX2 analytically  !
 ! A32   A(10,11,12)           122.1417         calculate D2E/DX2 analytically  !
 ! A33   A(10,11,23)           118.2733         calculate D2E/DX2 analytically  !
 ! A34   A(12,11,23)           119.3455         calculate D2E/DX2 analytically  !
 ! A35   A(3,12,11)            114.2822         calculate D2E/DX2 analytically  !
 ! A36   A(3,12,13)            114.8354         calculate D2E/DX2 analytically  !
 ! A37   A(11,12,13)           129.5135         calculate D2E/DX2 analytically  !
 ! A38   A(12,13,14)           121.7135         calculate D2E/DX2 analytically  !
 ! A39   A(12,13,24)           119.3358         calculate D2E/DX2 analytically  !
 ! A40   A(14,13,24)           118.7287         calculate D2E/DX2 analytically  !
 ! A41   A(13,14,15)           121.6583         calculate D2E/DX2 analytically  !
 ! A42   A(13,14,25)           118.7576         calculate D2E/DX2 analytically  !
 ! A43   A(15,14,25)           119.3806         calculate D2E/DX2 analytically  !
 ! A44   A(4,15,14)            114.9444         calculate D2E/DX2 analytically  !
 ! A45   A(4,15,16)            114.1318         calculate D2E/DX2 analytically  !
 ! A46   A(14,15,16)           129.7133         calculate D2E/DX2 analytically  !
 ! A47   A(15,16,17)           122.5825         calculate D2E/DX2 analytically  !
 ! A48   A(15,16,26)           119.0179         calculate D2E/DX2 analytically  !
 ! A49   A(17,16,26)           118.1914         calculate D2E/DX2 analytically  !
 ! A50   A(16,17,18)           121.4529         calculate D2E/DX2 analytically  !
 ! A51   A(16,17,27)           118.813          calculate D2E/DX2 analytically  !
 ! A52   A(18,17,27)           119.5208         calculate D2E/DX2 analytically  !
 ! A53   A(5,18,17)            114.4078         calculate D2E/DX2 analytically  !
 ! A54   A(5,18,19)            115.5195         calculate D2E/DX2 analytically  !
 ! A55   A(17,18,19)           129.1854         calculate D2E/DX2 analytically  !
 ! A56   A(18,19,20)           122.0163         calculate D2E/DX2 analytically  !
 ! A57   A(18,19,28)           118.9776         calculate D2E/DX2 analytically  !
 ! A58   A(20,19,28)           118.8534         calculate D2E/DX2 analytically  !
 ! A59   A(6,20,19)            120.9299         calculate D2E/DX2 analytically  !
 ! A60   A(6,20,29)            118.9853         calculate D2E/DX2 analytically  !
 ! A61   A(19,20,29)           119.9521         calculate D2E/DX2 analytically  !
 ! D1    D(5,1,2,3)             -1.7805         calculate D2E/DX2 analytically  !
 ! D2    D(5,1,2,9)           -154.2642         calculate D2E/DX2 analytically  !
 ! D3    D(6,1,2,3)            156.18           calculate D2E/DX2 analytically  !
 ! D4    D(6,1,2,9)              3.6963         calculate D2E/DX2 analytically  !
 ! D5    D(2,1,5,4)              2.0138         calculate D2E/DX2 analytically  !
 ! D6    D(2,1,5,18)           154.0924         calculate D2E/DX2 analytically  !
 ! D7    D(6,1,5,4)           -156.7724         calculate D2E/DX2 analytically  !
 ! D8    D(6,1,5,18)            -4.6938         calculate D2E/DX2 analytically  !
 ! D9    D(2,1,6,7)              5.9006         calculate D2E/DX2 analytically  !
 ! D10   D(2,1,6,20)          -161.9309         calculate D2E/DX2 analytically  !
 ! D11   D(5,1,6,7)            161.1452         calculate D2E/DX2 analytically  !
 ! D12   D(5,1,6,20)            -6.6864         calculate D2E/DX2 analytically  !
 ! D13   D(1,2,3,4)              0.8456         calculate D2E/DX2 analytically  !
 ! D14   D(1,2,3,12)          -151.5998         calculate D2E/DX2 analytically  !
 ! D15   D(9,2,3,4)            153.6857         calculate D2E/DX2 analytically  !
 ! D16   D(9,2,3,12)             1.2403         calculate D2E/DX2 analytically  !
 ! D17   D(1,2,9,8)            -14.5759         calculate D2E/DX2 analytically  !
 ! D18   D(1,2,9,10)           156.2464         calculate D2E/DX2 analytically  !
 ! D19   D(3,2,9,8)           -162.8687         calculate D2E/DX2 analytically  !
 ! D20   D(3,2,9,10)             7.9536         calculate D2E/DX2 analytically  !
 ! D21   D(2,3,4,5)              0.3759         calculate D2E/DX2 analytically  !
 ! D22   D(2,3,4,15)          -152.2926         calculate D2E/DX2 analytically  !
 ! D23   D(12,3,4,5)           152.8926         calculate D2E/DX2 analytically  !
 ! D24   D(12,3,4,15)            0.2241         calculate D2E/DX2 analytically  !
 ! D25   D(2,3,12,11)           -9.7091         calculate D2E/DX2 analytically  !
 ! D26   D(2,3,12,13)          158.2341         calculate D2E/DX2 analytically  !
 ! D27   D(4,3,12,11)         -158.26           calculate D2E/DX2 analytically  !
 ! D28   D(4,3,12,13)            9.6832         calculate D2E/DX2 analytically  !
 ! D29   D(3,4,5,1)             -1.478          calculate D2E/DX2 analytically  !
 ! D30   D(3,4,5,18)          -153.2597         calculate D2E/DX2 analytically  !
 ! D31   D(15,4,5,1)           151.2104         calculate D2E/DX2 analytically  !
 ! D32   D(15,4,5,18)           -0.5713         calculate D2E/DX2 analytically  !
 ! D33   D(3,4,15,14)           -9.8917         calculate D2E/DX2 analytically  !
 ! D34   D(3,4,15,16)          158.7842         calculate D2E/DX2 analytically  !
 ! D35   D(5,4,15,14)         -158.6954         calculate D2E/DX2 analytically  !
 ! D36   D(5,4,15,16)            9.9805         calculate D2E/DX2 analytically  !
 ! D37   D(1,5,18,17)         -157.0068         calculate D2E/DX2 analytically  !
 ! D38   D(1,5,18,19)           13.219          calculate D2E/DX2 analytically  !
 ! D39   D(4,5,18,17)           -9.2751         calculate D2E/DX2 analytically  !
 ! D40   D(4,5,18,19)          160.9508         calculate D2E/DX2 analytically  !
 ! D41   D(1,6,7,8)             -3.6743         calculate D2E/DX2 analytically  !
 ! D42   D(1,6,7,30)           -78.8664         calculate D2E/DX2 analytically  !
 ! D43   D(20,6,7,8)           161.3404         calculate D2E/DX2 analytically  !
 ! D44   D(20,6,7,30)           86.1483         calculate D2E/DX2 analytically  !
 ! D45   D(1,6,20,19)            8.9445         calculate D2E/DX2 analytically  !
 ! D46   D(1,6,20,29)         -175.2445         calculate D2E/DX2 analytically  !
 ! D47   D(7,6,20,19)         -155.504          calculate D2E/DX2 analytically  !
 ! D48   D(7,6,20,29)           20.3071         calculate D2E/DX2 analytically  !
 ! D49   D(6,7,8,9)             -6.7694         calculate D2E/DX2 analytically  !
 ! D50   D(6,7,8,21)           124.2851         calculate D2E/DX2 analytically  !
 ! D51   D(7,8,9,2)             15.1995         calculate D2E/DX2 analytically  !
 ! D52   D(7,8,9,10)          -154.1377         calculate D2E/DX2 analytically  !
 ! D53   D(21,8,9,2)          -119.8033         calculate D2E/DX2 analytically  !
 ! D54   D(21,8,9,10)           70.8596         calculate D2E/DX2 analytically  !
 ! D55   D(30,8,9,2)            78.0856         calculate D2E/DX2 analytically  !
 ! D56   D(30,8,9,10)          -91.2515         calculate D2E/DX2 analytically  !
 ! D57   D(2,9,10,11)           -8.195          calculate D2E/DX2 analytically  !
 ! D58   D(2,9,10,22)          176.9742         calculate D2E/DX2 analytically  !
 ! D59   D(8,9,10,11)          161.0682         calculate D2E/DX2 analytically  !
 ! D60   D(8,9,10,22)          -13.7626         calculate D2E/DX2 analytically  !
 ! D61   D(9,10,11,12)          -0.4289         calculate D2E/DX2 analytically  !
 ! D62   D(9,10,11,23)        -174.7668         calculate D2E/DX2 analytically  !
 ! D63   D(22,10,11,12)        174.4646         calculate D2E/DX2 analytically  !
 ! D64   D(22,10,11,23)          0.1267         calculate D2E/DX2 analytically  !
 ! D65   D(10,11,12,3)           9.2504         calculate D2E/DX2 analytically  !
 ! D66   D(10,11,12,13)       -156.5255         calculate D2E/DX2 analytically  !
 ! D67   D(23,11,12,3)        -176.4705         calculate D2E/DX2 analytically  !
 ! D68   D(23,11,12,13)         17.7536         calculate D2E/DX2 analytically  !
 ! D69   D(3,12,13,14)          -9.8162         calculate D2E/DX2 analytically  !
 ! D70   D(3,12,13,24)         175.6684         calculate D2E/DX2 analytically  !
 ! D71   D(11,12,13,14)        155.8955         calculate D2E/DX2 analytically  !
 ! D72   D(11,12,13,24)        -18.62           calculate D2E/DX2 analytically  !
 ! D73   D(12,13,14,15)          0.2693         calculate D2E/DX2 analytically  !
 ! D74   D(12,13,14,25)       -174.514          calculate D2E/DX2 analytically  !
 ! D75   D(24,13,14,15)        174.817          calculate D2E/DX2 analytically  !
 ! D76   D(24,13,14,25)          0.0338         calculate D2E/DX2 analytically  !
 ! D77   D(13,14,15,4)           9.5455         calculate D2E/DX2 analytically  !
 ! D78   D(13,14,15,16)       -156.9837         calculate D2E/DX2 analytically  !
 ! D79   D(25,14,15,4)        -175.703          calculate D2E/DX2 analytically  !
 ! D80   D(25,14,15,16)         17.7679         calculate D2E/DX2 analytically  !
 ! D81   D(4,15,16,17)          -9.7356         calculate D2E/DX2 analytically  !
 ! D82   D(4,15,16,26)         175.6061         calculate D2E/DX2 analytically  !
 ! D83   D(14,15,16,17)        156.8821         calculate D2E/DX2 analytically  !
 ! D84   D(14,15,16,26)        -17.7762         calculate D2E/DX2 analytically  !
 ! D85   D(15,16,17,18)          0.073          calculate D2E/DX2 analytically  !
 ! D86   D(15,16,17,27)       -174.5938         calculate D2E/DX2 analytically  !
 ! D87   D(26,16,17,18)        174.7733         calculate D2E/DX2 analytically  !
 ! D88   D(26,16,17,27)          0.1064         calculate D2E/DX2 analytically  !
 ! D89   D(16,17,18,5)           9.3177         calculate D2E/DX2 analytically  !
 ! D90   D(16,17,18,19)       -159.2825         calculate D2E/DX2 analytically  !
 ! D91   D(27,17,18,5)        -176.0525         calculate D2E/DX2 analytically  !
 ! D92   D(27,17,18,19)         15.3473         calculate D2E/DX2 analytically  !
 ! D93   D(5,18,19,20)         -10.7581         calculate D2E/DX2 analytically  !
 ! D94   D(5,18,19,28)         173.7862         calculate D2E/DX2 analytically  !
 ! D95   D(17,18,19,20)        157.7373         calculate D2E/DX2 analytically  !
 ! D96   D(17,18,19,28)        -17.7184         calculate D2E/DX2 analytically  !
 ! D97   D(18,19,20,6)          -0.2757         calculate D2E/DX2 analytically  !
 ! D98   D(18,19,20,29)       -176.0466         calculate D2E/DX2 analytically  !
 ! D99   D(28,19,20,6)         175.1854         calculate D2E/DX2 analytically  !
 ! D100  D(28,19,20,29)         -0.5854         calculate D2E/DX2 analytically  !
 --------------------------------------------------------------------------------
 Trust Radius=3.00D-01 FncErr=1.00D-07 GrdErr=1.00D-06 EigMax=2.50D+02 EigMin=1.00D-04
 Number of steps in this run=    180 maximum allowed number of steps=    180.
 Search for a saddle point of order  1.
 GradGradGradGradGradGradGradGradGradGradGradGradGradGradGradGradGradGrad

                          Input orientation:                          
 ---------------------------------------------------------------------
 Center     Atomic      Atomic             Coordinates (Angstroms)
 Number     Number       Type             X           Y           Z
 ---------------------------------------------------------------------
      1          6           0        0.343100   -1.154950   -0.561110
      2          6           0       -1.010540   -0.684790   -0.596230
      3          6           0       -0.956900    0.728260   -0.623380
      4          6           0        0.408580    1.119870   -0.625140
      5          6           0        1.207980   -0.052850   -0.607850
      6          6           0        0.757290   -2.415500   -0.059590
      7          6           0       -0.332760   -3.184100    0.270830
      8          6           0       -1.787280   -2.844260    0.239600
      9          6           0       -2.073900   -1.378140   -0.076000
     10          6           0       -3.213780   -0.585420    0.281440
     11          6           0       -3.158890    0.806920    0.262390
     12          6           0       -1.958330    1.524860   -0.106460
     13          6           0       -1.549570    2.873920    0.232120
     14          6           0       -0.216350    3.252380    0.233970
     15          6           0        0.839260    2.320490   -0.108200
     16          6           0        2.249380    2.344310    0.243890
     17          6           0        3.037280    1.198340    0.257910
     18          6           0        2.493660   -0.091780   -0.081340
     19          6           0        2.996870   -1.419670    0.250020
     20          6           0        2.181100   -2.527140    0.259940
     21          1           0       -2.423680   -3.457120   -0.317670
     22          1           0       -4.111610   -1.065790    0.653120
     23          1           0       -4.019400    1.360130    0.623640
     24          1           0       -2.293200    3.583420    0.577380
     25          1           0        0.043290    4.246190    0.581040
     26          1           0        2.689620    3.273410    0.591130
     27          1           0        4.058030    1.270640    0.614680
     28          1           0        4.027610   -1.526370    0.568100
     29          1           0        2.575020   -3.485960    0.572850
     30          1           0       -1.186260   -3.307590    1.207210
 ---------------------------------------------------------------------
                    Distance matrix (angstroms):
                    1          2          3          4          5
     1  C    0.000000
     2  C    1.433396   0.000000
     3  C    2.289183   1.414328   0.000000
     4  C    2.276663   2.295982   1.420527   0.000000
     5  C    1.401723   2.306797   2.301538   1.419370   0.000000
     6  C    1.418472   2.531514   3.624849   3.597261   2.466947
     7  C    2.294855   2.730884   4.061493   4.458307   3.598706
     8  C    2.834330   2.442386   3.767912   4.613448   4.181115
     9  C    2.475285   1.371899   2.446270   3.564311   3.579105
    10  C    3.699412   2.373699   2.763686   4.105045   4.541633
    11  C    4.097685   2.752787   2.374771   3.689511   4.534984
    12  C    3.561554   2.453718   1.380087   2.456687   3.572965
    13  C    4.521416   3.693391   2.384742   2.765129   4.107994
    14  C    4.513280   4.101375   2.766703   2.382479   3.696204
    15  C    3.539772   3.562533   2.454954   1.376300   2.453232
    16  C    4.065310   4.528612   3.693779   2.375502   2.748882
    17  C    3.669792   4.545391   4.117174   2.774166   2.379360
    18  C    2.446511   3.591127   3.587846   2.472119   1.389857
    19  C    2.787562   4.161192   4.583528   3.730203   2.409204
    20  C    2.436241   3.783364   4.607052   4.150407   2.796808
    21  H    3.607537   3.124160   4.445482   5.391203   4.986202
    22  H    4.618089   3.364918   3.847111   5.181040   5.560048
    23  H    5.173071   3.837059   3.366486   4.606971   5.553250
    24  H    5.540613   4.608708   3.373346   3.848993   5.185122
    25  H    5.528716   5.177942   3.850563   3.370784   4.609957
    26  H    5.142391   5.546923   4.609765   3.364549   3.833643
    27  H    4.589845   5.566005   5.193890   3.857249   3.371793
    28  H    3.871522   5.238977   5.598957   4.639373   3.391819
    29  H    3.420664   4.697823   5.627173   5.228988   3.879316
    30  H    3.178011   3.187845   4.437539   5.050091   4.429465
                    6          7          8          9         10
     6  C    0.000000
     7  C    1.374093   0.000000
     8  C    2.597727   1.494020   0.000000
     9  C    3.015298   2.532459   1.526847   0.000000
    10  C    4.385760   3.879887   2.671893   1.433700   0.000000
    11  C    5.081745   4.890330   3.900378   2.462965   1.393552
    12  C    4.785731   4.995911   4.386140   2.905459   2.485941
    13  C    5.777946   6.179137   5.723124   4.295332   3.839148
    14  C    5.758387   6.437638   6.295782   4.998829   4.869861
    15  C    4.736949   5.640727   5.804681   4.708227   5.002326
    16  C    4.997422   6.101761   6.573880   5.713993   6.199262
    17  C    4.284740   5.528392   6.294389   5.733577   6.500623
    18  C    2.900884   4.204178   5.099568   4.745246   5.740223
    19  C    2.470477   3.768300   4.991759   5.081409   6.266509
    20  C    1.463488   2.598309   3.981083   4.420190   5.733713
    21  H    3.357104   2.189251   1.044582   2.122006   3.038067
    22  H    5.102535   4.348918   2.955751   2.186651   1.083974
    23  H    6.126904   5.862236   4.775640   3.431121   2.133375
    24  H    6.760049   7.052420   6.456402   5.009199   4.279518
    25  H    6.730402   7.446264   7.330897   6.045435   5.834614
    26  H    6.043263   7.137003   7.588945   6.691271   7.059505
    27  H    4.993711   6.264342   7.158263   6.715180   7.512338
    28  H    3.446671   4.674320   5.971406   6.137203   7.307892
    29  H    2.202273   2.938966   4.421820   5.145519   6.481378
    30  H    2.485557   1.272996   1.229703   2.481393   3.518252
                   11         12         13         14         15
    11  C    0.000000
    12  C    1.446663   0.000000
    13  C    2.619793   1.449719   0.000000
    14  C    3.826176   2.476835   1.385897   0.000000
    15  C    4.291088   2.908529   2.475603   1.449073   0.000000
    16  C    5.622570   4.301054   3.835707   2.627644   1.453607
    17  C    6.208523   5.019512   4.883383   3.847826   2.494905
    18  C    5.733859   4.736494   5.024076   4.315899   2.925202
    19  C    6.546086   5.775062   6.253427   5.670370   4.332713
    20  C    6.295352   5.804122   6.564307   6.257099   5.043370
    21  H    4.365666   5.008122   6.414702   7.084773   6.638632
    22  H    2.137145   3.453266   4.718326   5.830551   6.046289
    23  H    1.084906   2.192759   2.923168   4.265635   5.006442
    24  H    2.925336   2.194868   1.084242   2.130921   3.446348
    25  H    4.709997   3.447430   2.131214   1.084218   2.194753
    26  H    6.355841   5.014728   4.273080   2.927912   2.195666
    27  H    7.240378   6.064755   5.844830   4.726792   3.461968
    28  H    7.561976   6.752519   7.111988   6.399945   5.041953
    29  H    7.169584   6.791247   7.587912   7.301494   6.098488
    30  H    4.659737   5.066991   6.268482   6.702323   6.124404
                   16         17         18         19         20
    16  C    0.000000
    17  C    1.390766   0.000000
    18  C    2.469814   1.440494   0.000000
    19  C    3.837489   2.618334   1.458188   0.000000
    20  C    4.871955   3.822597   2.478940   1.375525   0.000000
    21  H    7.470571   7.199075   5.963355   5.818577   4.733127
    22  H    7.229000   7.509268   6.716972   7.128689   6.472120
    23  H    6.356919   7.068003   6.710066   7.556118   7.327301
    24  H    4.720343   5.848477   6.070835   7.288547   7.580176
    25  H    2.932175   4.284598   5.026037   6.398061   7.109946
    26  H    1.085179   2.130216   3.437313   4.715481   5.832209
    27  H    2.135759   1.083717   2.188124   2.914928   4.251099
    28  H    4.271929   2.915650   2.198368   1.083967   2.122758
    29  H    5.848616   4.717578   3.457606   2.133479   1.082784
    30  H    6.683979   6.248429   5.054068   4.688180   3.584067
                   21         22         23         24         25
    21  H    0.000000
    22  H    3.083829   0.000000
    23  H    5.161229   2.427851   0.000000
    24  H    7.098404   4.992745   2.815124   0.000000
    25  H    8.138465   6.744295   4.983634   2.428675   0.000000
    26  H    8.501282   8.067790   6.976578   4.992473   2.819480
    27  H    8.076729   8.497258   8.077931   6.759324   4.997316
    28  H    6.792019   8.152684   8.549230   8.127895   7.014087
    29  H    5.077486   7.111588   8.183736   8.583456   8.136084
    30  H    1.969474   3.726977   5.491343   7.007712   7.678768
                   26         27         28         29         30
    26  H    0.000000
    27  H    2.425735   0.000000
    28  H    4.982834   2.797563   0.000000
    29  H    6.760366   4.982601   2.439269   0.000000
    30  H    7.662347   6.986692   5.546679   3.818567   0.000000
 Stoichiometry    C20H10(1+,2)
 Framework group  C1[X(C20H10)]
 Deg. of freedom    84
 Full point group                 C1      NOp   1
 Largest Abelian subgroup         C1      NOp   1
 Largest concise Abelian subgroup C1      NOp   1
                         Standard orientation:                         
 ---------------------------------------------------------------------
 Center     Atomic      Atomic             Coordinates (Angstroms)
 Number     Number       Type             X           Y           Z
 ---------------------------------------------------------------------
      1          6           0       -0.533980   -1.075473    0.565208
      2          6           0        0.881561   -0.852213    0.597197
      3          6           0        1.078861    0.548067    0.621928
      4          6           0       -0.195769    1.175126    0.625308
      5          6           0       -1.190101    0.162345    0.611457
      6          6           0       -1.165683   -2.243563    0.066631
      7          6           0       -0.229496   -3.193400   -0.264272
      8          6           0        1.262265   -3.116260   -0.236112
      9          6           0        1.804418   -1.723540    0.076396
     10          6           0        3.065871   -1.145553   -0.284384
     11          6           0        3.258261    0.234554   -0.267714
     12          6           0        2.204420    1.154140    0.101896
     13          6           0        2.040156    2.553751   -0.238386
     14          6           0        0.794942    3.162153   -0.238647
     15          6           0       -0.408228    2.432260    0.106967
     16          6           0       -1.792576    2.704719   -0.242772
     17          6           0       -2.770849    1.716236   -0.253420
     18          6           0       -2.463423    0.350772    0.087199
     19          6           0       -3.194319   -0.867596   -0.240948
     20          6           0       -2.587411   -2.101956   -0.250285
     21          1           0        1.781281   -3.831254    0.321165
     22          1           0        3.863793   -1.777755   -0.656733
     23          1           0        4.202364    0.626240   -0.631406
     24          1           0        2.896911    3.119966   -0.586167
     25          1           0        0.714566    4.185721   -0.587041
     26          1           0       -2.062152    3.696556   -0.590915
     27          1           0       -3.763404    1.967504   -0.608586
     28          1           0       -4.228303   -0.790680   -0.557089
     29          1           0       -3.145398   -2.976392   -0.560822
     30          1           0        0.586825   -3.467327   -1.201877
 ---------------------------------------------------------------------
 Rotational constants (GHZ):           0.5128569           0.5002025           0.2622540
 Standard basis: 6-31G(d) (6D, 7F)
 There are   320 symmetry adapted cartesian basis functions of A   symmetry.
 There are   320 symmetry adapted basis functions of A   symmetry.
   320 basis functions,   600 primitive gaussians,   320 cartesian basis functions
    65 alpha electrons       64 beta electrons
       nuclear repulsion energy      1382.2768480484 Hartrees.
 NAtoms=   30 NActive=   30 NUniq=   30 SFac= 1.00D+00 NAtFMM=   60 NAOKFM=F Big=F
 Integral buffers will be    131072 words long.
 Raffenetti 2 integral format.
 Two-electron integral symmetry is turned on.
 One-electron integrals computed using PRISM.
 NBasis=   320 RedAO= T EigKep=  2.81D-04  NBF=   320
 NBsUse=   320 1.00D-06 EigRej= -1.00D+00 NBFU=   320
 ExpMin= 1.61D-01 ExpMax= 3.05D+03 ExpMxC= 4.57D+02 IAcc=3 IRadAn=         5 AccDes= 0.00D+00
 Harris functional with IExCor= 1009 and IRadAn=       5 diagonalized for initial guess.
 HarFok:  IExCor= 1009 AccDes= 0.00D+00 IRadAn=         5 IDoV= 1 UseB2=F ITyADJ=14
 ICtDFT=  3500011 ScaDFX=  1.000000  1.000000  1.000000  1.000000
 FoFCou: FMM=F IPFlag=           0 FMFlag=      100000 FMFlg1=           0
         NFxFlg=           0 DoJE=T BraDBF=F KetDBF=T FulRan=T
         wScrn=  0.000000 ICntrl=       500 IOpCl=  0 I1Cent=   200000004 NGrid=           0
         NMat0=    1 NMatS0=      1 NMatT0=    0 NMatD0=    1 NMtDS0=    0 NMtDT0=    0
 Petite list used in FoFCou.
 Initial guess <Sx>= 0.0000 <Sy>= 0.0000 <Sz>= 0.5000 <S**2>= 0.7500 S= 0.5000
 Requested convergence on RMS density matrix=1.00D-08 within 128 cycles.
 Requested convergence on MAX density matrix=1.00D-06.
 Requested convergence on             energy=1.00D-06.
 No special actions if energy rises.
 Restarting incremental Fock formation.
 SCF Done:  E(UM062X) =  -767.418660165     A.U. after   22 cycles
            NFock= 22  Conv=0.34D-08     -V/T= 2.0088
 <Sx>= 0.0000 <Sy>= 0.0000 <Sz>= 0.5000 <S**2>= 0.7665 S= 0.5082
 <L.S>=  0.00000000000    
 Annihilation of the first spin contaminant:
 S**2 before annihilation     0.7665,   after     0.7501
 DoSCS=F DFT=T ScalE2(SS,OS)=  1.000000  1.000000
 Range of M.O.s used for correlation:     1   320
 NBasis=   320 NAE=    65 NBE=    64 NFC=     0 NFV=     0
 NROrb=    320 NOA=    65 NOB=    64 NVA=   255 NVB=   256
 PrsmSu:  requested number of processors reduced to:  14 ShMem   1 Linda.
 Symmetrizing basis deriv contribution to polar:
 IMax=3 JMax=2 DiffMx= 0.00D+00
 G2DrvN: will do    11 centers at a time, making    3 passes.
 Calling FoFCou, ICntrl=  3107 FMM=F I1Cent=   0 AccDes= 0.00D+00.
 Calling FoFCou, ICntrl=  3107 FMM=F I1Cent=   0 AccDes= 0.00D+00.
 Calling FoFCou, ICntrl=  3107 FMM=F I1Cent=   0 AccDes= 0.00D+00.
 End of G2Drv F.D. properties file   721 does not exist.
 End of G2Drv F.D. properties file   722 does not exist.
 End of G2Drv F.D. properties file   788 does not exist.
          IDoAtm=111111111111111111111111111111
          Differentiating once with respect to nuclear coordinates.
 CalDSu exits because no D1Ps are significant.
          There are    93 degrees of freedom in the 1st order CPHF.  IDoFFX=6 NUNeed=     0.
     87 vectors produced by pass  0 Test12= 3.54D-14 1.08D-09 XBig12= 2.38D-01 9.67D-02.
 AX will form    16 AO Fock derivatives at one time.
     87 vectors produced by pass  1 Test12= 3.54D-14 1.08D-09 XBig12= 4.30D-02 3.38D-02.
     87 vectors produced by pass  2 Test12= 3.54D-14 1.08D-09 XBig12= 1.23D-03 7.57D-03.
     87 vectors produced by pass  3 Test12= 3.54D-14 1.08D-09 XBig12= 1.91D-05 8.05D-04.
     87 vectors produced by pass  4 Test12= 3.54D-14 1.08D-09 XBig12= 2.52D-07 8.15D-05.
     87 vectors produced by pass  5 Test12= 3.54D-14 1.08D-09 XBig12= 2.45D-09 4.79D-06.
     87 vectors produced by pass  6 Test12= 3.54D-14 1.08D-09 XBig12= 1.58D-11 3.40D-07.
     69 vectors produced by pass  7 Test12= 3.54D-14 1.08D-09 XBig12= 1.05D-13 2.45D-08.
     19 vectors produced by pass  8 Test12= 3.54D-14 1.08D-09 XBig12= 2.30D-15 2.08D-09.
      5 vectors produced by pass  9 Test12= 3.54D-14 1.08D-09 XBig12= 7.28D-16 1.50D-09.
      3 vectors produced by pass 10 Test12= 3.54D-14 1.08D-09 XBig12= 8.02D-16 1.65D-09.
      3 vectors produced by pass 11 Test12= 3.54D-14 1.08D-09 XBig12= 9.17D-16 1.81D-09.
      3 vectors produced by pass 12 Test12= 3.54D-14 1.08D-09 XBig12= 8.00D-16 1.37D-09.
      3 vectors produced by pass 13 Test12= 3.54D-14 1.08D-09 XBig12= 7.90D-16 1.23D-09.
      3 vectors produced by pass 14 Test12= 3.54D-14 1.08D-09 XBig12= 1.09D-15 1.41D-09.
      3 vectors produced by pass 15 Test12= 3.54D-14 1.08D-09 XBig12= 8.71D-16 1.84D-09.
      2 vectors produced by pass 16 Test12= 3.54D-14 1.08D-09 XBig12= 5.78D-16 1.63D-09.
 InvSVY:  IOpt=1 It=  1 EMax= 6.11D-16
 Solved reduced A of dimension   722 with    93 vectors.
 End of Minotr F.D. properties file   721 does not exist.
 End of Minotr F.D. properties file   722 does not exist.
 End of Minotr F.D. properties file   788 does not exist.

 **********************************************************************

            Population analysis using the SCF Density.

 **********************************************************************

 Orbital symmetries:
 Alpha Orbitals:
       Occupied  (A) (A) (A) (A) (A) (A) (A) (A) (A) (A) (A) (A)
                 (A) (A) (A) (A) (A) (A) (A) (A) (A) (A) (A) (A)
                 (A) (A) (A) (A) (A) (A) (A) (A) (A) (A) (A) (A)
                 (A) (A) (A) (A) (A) (A) (A) (A) (A) (A) (A) (A)
                 (A) (A) (A) (A) (A) (A) (A) (A) (A) (A) (A) (A)
                 (A) (A) (A) (A) (A)
       Virtual   (A) (A) (A) (A) (A) (A) (A) (A) (A) (A) (A) (A)
                 (A) (A) (A) (A) (A) (A) (A) (A) (A) (A) (A) (A)
                 (A) (A) (A) (A) (A) (A) (A) (A) (A) (A) (A) (A)
                 (A) (A) (A) (A) (A) (A) (A) (A) (A) (A) (A) (A)
                 (A) (A) (A) (A) (A) (A) (A) (A) (A) (A) (A) (A)
                 (A) (A) (A) (A) (A) (A) (A) (A) (A) (A) (A) (A)
                 (A) (A) (A) (A) (A) (A) (A) (A) (A) (A) (A) (A)
                 (A) (A) (A) (A) (A) (A) (A) (A) (A) (A) (A) (A)
                 (A) (A) (A) (A) (A) (A) (A) (A) (A) (A) (A) (A)
                 (A) (A) (A) (A) (A) (A) (A) (A) (A) (A) (A) (A)
                 (A) (A) (A) (A) (A) (A) (A) (A) (A) (A) (A) (A)
                 (A) (A) (A) (A) (A) (A) (A) (A) (A) (A) (A) (A)
                 (A) (A) (A) (A) (A) (A) (A) (A) (A) (A) (A) (A)
                 (A) (A) (A) (A) (A) (A) (A) (A) (A) (A) (A) (A)
                 (A) (A) (A) (A) (A) (A) (A) (A) (A) (A) (A) (A)
                 (A) (A) (A) (A) (A) (A) (A) (A) (A) (A) (A) (A)
                 (A) (A) (A) (A) (A) (A) (A) (A) (A) (A) (A) (A)
                 (A) (A) (A) (A) (A) (A) (A) (A) (A) (A) (A) (A)
                 (A) (A) (A) (A) (A) (A) (A) (A) (A) (A) (A) (A)
                 (A) (A) (A) (A) (A) (A) (A) (A) (A) (A) (A) (A)
                 (A) (A) (A) (A) (A) (A) (A) (A) (A) (A) (A) (A)
                 (A) (A) (A)
 Beta  Orbitals:
       Occupied  (A) (A) (A) (A) (A) (A) (A) (A) (A) (A) (A) (A)
                 (A) (A) (A) (A) (A) (A) (A) (A) (A) (A) (A) (A)
                 (A) (A) (A) (A) (A) (A) (A) (A) (A) (A) (A) (A)
                 (A) (A) (A) (A) (A) (A) (A) (A) (A) (A) (A) (A)
                 (A) (A) (A) (A) (A) (A) (A) (A) (A) (A) (A) (A)
                 (A) (A) (A) (A)
       Virtual   (A) (A) (A) (A) (A) (A) (A) (A) (A) (A) (A) (A)
                 (A) (A) (A) (A) (A) (A) (A) (A) (A) (A) (A) (A)
                 (A) (A) (A) (A) (A) (A) (A) (A) (A) (A) (A) (A)
                 (A) (A) (A) (A) (A) (A) (A) (A) (A) (A) (A) (A)
                 (A) (A) (A) (A) (A) (A) (A) (A) (A) (A) (A) (A)
                 (A) (A) (A) (A) (A) (A) (A) (A) (A) (A) (A) (A)
                 (A) (A) (A) (A) (A) (A) (A) (A) (A) (A) (A) (A)
                 (A) (A) (A) (A) (A) (A) (A) (A) (A) (A) (A) (A)
                 (A) (A) (A) (A) (A) (A) (A) (A) (A) (A) (A) (A)
                 (A) (A) (A) (A) (A) (A) (A) (A) (A) (A) (A) (A)
                 (A) (A) (A) (A) (A) (A) (A) (A) (A) (A) (A) (A)
                 (A) (A) (A) (A) (A) (A) (A) (A) (A) (A) (A) (A)
                 (A) (A) (A) (A) (A) (A) (A) (A) (A) (A) (A) (A)
                 (A) (A) (A) (A) (A) (A) (A) (A) (A) (A) (A) (A)
                 (A) (A) (A) (A) (A) (A) (A) (A) (A) (A) (A) (A)
                 (A) (A) (A) (A) (A) (A) (A) (A) (A) (A) (A) (A)
                 (A) (A) (A) (A) (A) (A) (A) (A) (A) (A) (A) (A)
                 (A) (A) (A) (A) (A) (A) (A) (A) (A) (A) (A) (A)
                 (A) (A) (A) (A) (A) (A) (A) (A) (A) (A) (A) (A)
                 (A) (A) (A) (A) (A) (A) (A) (A) (A) (A) (A) (A)
                 (A) (A) (A) (A) (A) (A) (A) (A) (A) (A) (A) (A)
                 (A) (A) (A) (A)
 The electronic state is 2-A.
 Alpha  occ. eigenvalues --  -10.80443 -10.77349 -10.74443 -10.74262 -10.73908
 Alpha  occ. eigenvalues --  -10.72580 -10.71866 -10.71202 -10.71170 -10.71028
 Alpha  occ. eigenvalues --  -10.70965 -10.70828 -10.70685 -10.70645 -10.69972
 Alpha  occ. eigenvalues --  -10.69760 -10.69653 -10.69494 -10.69277 -10.69197
 Alpha  occ. eigenvalues --   -1.18724  -1.13673  -1.11342  -1.07540  -1.05223
 Alpha  occ. eigenvalues --   -1.05009  -0.99729  -0.98199  -0.96180  -0.95901
 Alpha  occ. eigenvalues --   -0.89212  -0.87498  -0.86159  -0.82627  -0.82379
 Alpha  occ. eigenvalues --   -0.80474  -0.77166  -0.74073  -0.72765  -0.71710
 Alpha  occ. eigenvalues --   -0.71607  -0.69497  -0.65857  -0.65559  -0.64106
 Alpha  occ. eigenvalues --   -0.63941  -0.63842  -0.63013  -0.62198  -0.61281
 Alpha  occ. eigenvalues --   -0.59982  -0.59414  -0.58291  -0.56969  -0.55147
 Alpha  occ. eigenvalues --   -0.54245  -0.53187  -0.52761  -0.51080  -0.50608
 Alpha  occ. eigenvalues --   -0.48384  -0.44470  -0.43069  -0.41497  -0.41273
 Alpha virt. eigenvalues --   -0.23886  -0.18261  -0.13440  -0.12345  -0.08986
 Alpha virt. eigenvalues --   -0.08023  -0.02347  -0.02083   0.01615   0.02392
 Alpha virt. eigenvalues --    0.03581   0.04028   0.04898   0.05648   0.06600
 Alpha virt. eigenvalues --    0.07264   0.08728   0.09413   0.10242   0.10675
 Alpha virt. eigenvalues --    0.11346   0.12016   0.13459   0.14424   0.16340
 Alpha virt. eigenvalues --    0.16613   0.17185   0.19663   0.20534   0.21063
 Alpha virt. eigenvalues --    0.21998   0.22969   0.26571   0.29081   0.29629
 Alpha virt. eigenvalues --    0.32773   0.34387   0.34980   0.36658   0.38022
 Alpha virt. eigenvalues --    0.38263   0.40215   0.40748   0.41495   0.42952
 Alpha virt. eigenvalues --    0.43801   0.44098   0.44706   0.45579   0.46140
 Alpha virt. eigenvalues --    0.46395   0.47138   0.47663   0.47941   0.48326
 Alpha virt. eigenvalues --    0.49431   0.49934   0.50164   0.50650   0.50877
 Alpha virt. eigenvalues --    0.51504   0.51647   0.52801   0.53035   0.53151
 Alpha virt. eigenvalues --    0.53745   0.54819   0.55385   0.56815   0.57293
 Alpha virt. eigenvalues --    0.58753   0.59555   0.60173   0.61151   0.62337
 Alpha virt. eigenvalues --    0.63241   0.64142   0.65742   0.66494   0.68619
 Alpha virt. eigenvalues --    0.69443   0.70634   0.72257   0.73075   0.76325
 Alpha virt. eigenvalues --    0.76820   0.77109   0.77777   0.78507   0.78842
 Alpha virt. eigenvalues --    0.79450   0.79895   0.80796   0.81360   0.83152
 Alpha virt. eigenvalues --    0.83921   0.85227   0.85960   0.86356   0.87202
 Alpha virt. eigenvalues --    0.87543   0.88736   0.89319   0.89560   0.91218
 Alpha virt. eigenvalues --    0.91675   0.95000   0.96050   0.97040   0.98742
 Alpha virt. eigenvalues --    0.99154   0.99664   1.00565   1.01592   1.02135
 Alpha virt. eigenvalues --    1.02664   1.04569   1.06985   1.10538   1.12188
 Alpha virt. eigenvalues --    1.13305   1.14326   1.16091   1.17712   1.18484
 Alpha virt. eigenvalues --    1.19651   1.20949   1.21899   1.24394   1.26687
 Alpha virt. eigenvalues --    1.27566   1.32755   1.36647   1.37586   1.38618
 Alpha virt. eigenvalues --    1.39520   1.40923   1.41454   1.42165   1.43862
 Alpha virt. eigenvalues --    1.45369   1.49373   1.51221   1.52514   1.54426
 Alpha virt. eigenvalues --    1.55144   1.56590   1.57363   1.59622   1.60306
 Alpha virt. eigenvalues --    1.60928   1.63783   1.64011   1.65530   1.66831
 Alpha virt. eigenvalues --    1.67209   1.69453   1.71669   1.72418   1.73896
 Alpha virt. eigenvalues --    1.79371   1.80193   1.80746   1.82104   1.83463
 Alpha virt. eigenvalues --    1.85254   1.85467   1.86057   1.86295   1.87968
 Alpha virt. eigenvalues --    1.89614   1.91380   1.91987   1.92756   1.94320
 Alpha virt. eigenvalues --    1.94660   1.97387   1.98132   1.98920   2.00273
 Alpha virt. eigenvalues --    2.02247   2.03860   2.05327   2.06816   2.08554
 Alpha virt. eigenvalues --    2.10449   2.11840   2.12091   2.13426   2.14249
 Alpha virt. eigenvalues --    2.15882   2.17011   2.17845   2.18789   2.23780
 Alpha virt. eigenvalues --    2.25011   2.26025   2.27395   2.28658   2.30955
 Alpha virt. eigenvalues --    2.32579   2.33553   2.37613   2.41765   2.44225
 Alpha virt. eigenvalues --    2.45718   2.46765   2.48364   2.50189   2.50953
 Alpha virt. eigenvalues --    2.52677   2.56633   2.57951   2.59195   2.60254
 Alpha virt. eigenvalues --    2.61353   2.63677   2.64924   2.66499   2.67591
 Alpha virt. eigenvalues --    2.70249   2.70408   2.73050   2.73637   2.76415
 Alpha virt. eigenvalues --    2.80441   2.84016   2.87358   2.88327   2.92957
 Alpha virt. eigenvalues --    3.11072   3.18281   3.22216   3.24526   3.42986
 Alpha virt. eigenvalues --    3.90715   3.94238   3.94371   3.97224   3.98106
 Alpha virt. eigenvalues --    3.98234   4.03712   4.04871   4.05772   4.06151
 Alpha virt. eigenvalues --    4.15353   4.17404   4.25221   4.27837   4.31402
 Alpha virt. eigenvalues --    4.34711   4.44419   4.46855   4.74592   4.79475
  Beta  occ. eigenvalues --  -10.79479 -10.77224 -10.74433 -10.74190 -10.73832
  Beta  occ. eigenvalues --  -10.72578 -10.71839 -10.71216 -10.71168 -10.71032
  Beta  occ. eigenvalues --  -10.70969 -10.70829 -10.70678 -10.70646 -10.69974
  Beta  occ. eigenvalues --  -10.69748 -10.69655 -10.69494 -10.69270 -10.69187
  Beta  occ. eigenvalues --   -1.18343  -1.12566  -1.11250  -1.06867  -1.05162
  Beta  occ. eigenvalues --   -1.04778  -0.99264  -0.97843  -0.96021  -0.95829
  Beta  occ. eigenvalues --   -0.88756  -0.86990  -0.85878  -0.82353  -0.81925
  Beta  occ. eigenvalues --   -0.80149  -0.76414  -0.73912  -0.72625  -0.71481
  Beta  occ. eigenvalues --   -0.71248  -0.68617  -0.65650  -0.65400  -0.63876
  Beta  occ. eigenvalues --   -0.63808  -0.63672  -0.62853  -0.61912  -0.60717
  Beta  occ. eigenvalues --   -0.59370  -0.59283  -0.58185  -0.55819  -0.55032
  Beta  occ. eigenvalues --   -0.53746  -0.53127  -0.52664  -0.50623  -0.50537
  Beta  occ. eigenvalues --   -0.45583  -0.42795  -0.41441  -0.41194
  Beta virt. eigenvalues --   -0.23955  -0.22098  -0.17628  -0.13248  -0.11452
  Beta virt. eigenvalues --   -0.09001  -0.07909  -0.02039  -0.01733   0.01934
  Beta virt. eigenvalues --    0.02664   0.03714   0.04293   0.04991   0.05681
  Beta virt. eigenvalues --    0.06715   0.07294   0.08968   0.09515   0.10447
  Beta virt. eigenvalues --    0.10840   0.11380   0.12230   0.13687   0.14570
  Beta virt. eigenvalues --    0.16391   0.16880   0.17221   0.19758   0.20728
  Beta virt. eigenvalues --    0.21077   0.22065   0.23136   0.26934   0.29228
  Beta virt. eigenvalues --    0.29844   0.32728   0.34526   0.35061   0.36885
  Beta virt. eigenvalues --    0.38033   0.38803   0.40498   0.40822   0.41813
  Beta virt. eigenvalues --    0.43377   0.43912   0.44244   0.44739   0.45615
  Beta virt. eigenvalues --    0.46204   0.46508   0.47309   0.47695   0.47951
  Beta virt. eigenvalues --    0.48441   0.49568   0.50095   0.50194   0.50651
  Beta virt. eigenvalues --    0.50867   0.51561   0.52051   0.52856   0.53110
  Beta virt. eigenvalues --    0.53176   0.53857   0.54874   0.55512   0.56880
  Beta virt. eigenvalues --    0.57514   0.59085   0.59718   0.60169   0.61303
  Beta virt. eigenvalues --    0.62366   0.63402   0.64177   0.65802   0.66911
  Beta virt. eigenvalues --    0.68686   0.69442   0.70806   0.72268   0.73110
  Beta virt. eigenvalues --    0.76380   0.76797   0.77212   0.77782   0.78511
  Beta virt. eigenvalues --    0.78939   0.79443   0.80029   0.80925   0.81469
  Beta virt. eigenvalues --    0.83121   0.83932   0.85249   0.86065   0.86376
  Beta virt. eigenvalues --    0.87102   0.87493   0.88843   0.89367   0.89778
  Beta virt. eigenvalues --    0.91251   0.91760   0.94982   0.96237   0.97125
  Beta virt. eigenvalues --    0.98550   0.99112   0.99865   1.00643   1.01717
  Beta virt. eigenvalues --    1.02329   1.02759   1.04584   1.06867   1.10547
  Beta virt. eigenvalues --    1.12297   1.13321   1.14439   1.16157   1.17720
  Beta virt. eigenvalues --    1.18439   1.19724   1.20952   1.22224   1.24578
  Beta virt. eigenvalues --    1.26788   1.27791   1.33564   1.36739   1.37828
  Beta virt. eigenvalues --    1.38624   1.39541   1.41094   1.41528   1.42115
  Beta virt. eigenvalues --    1.43993   1.45580   1.49848   1.51440   1.52725
  Beta virt. eigenvalues --    1.55166   1.55633   1.56712   1.57731   1.59728
  Beta virt. eigenvalues --    1.60394   1.61480   1.63859   1.64744   1.65706
  Beta virt. eigenvalues --    1.67407   1.67798   1.70031   1.72405   1.72986
  Beta virt. eigenvalues --    1.74091   1.79581   1.80463   1.81096   1.82777
  Beta virt. eigenvalues --    1.83956   1.85430   1.85511   1.86085   1.86636
  Beta virt. eigenvalues --    1.88114   1.89997   1.91487   1.92211   1.93172
  Beta virt. eigenvalues --    1.94479   1.94820   1.97700   1.98219   1.99070
  Beta virt. eigenvalues --    2.00771   2.02341   2.04294   2.05692   2.07189
  Beta virt. eigenvalues --    2.08761   2.10647   2.11964   2.12264   2.13444
  Beta virt. eigenvalues --    2.14383   2.16106   2.17205   2.17954   2.19125
  Beta virt. eigenvalues --    2.24385   2.25107   2.26167   2.27463   2.28747
  Beta virt. eigenvalues --    2.31341   2.32927   2.33633   2.38205   2.42070
  Beta virt. eigenvalues --    2.44627   2.45762   2.46833   2.48426   2.50657
  Beta virt. eigenvalues --    2.51204   2.52938   2.56707   2.58164   2.59368
  Beta virt. eigenvalues --    2.60461   2.61443   2.63777   2.65151   2.66519
  Beta virt. eigenvalues --    2.67641   2.70350   2.70505   2.73307   2.74340
  Beta virt. eigenvalues --    2.76429   2.80721   2.84152   2.87725   2.88400
  Beta virt. eigenvalues --    2.92985   3.11427   3.18342   3.22293   3.24581
  Beta virt. eigenvalues --    3.43116   3.92165   3.94334   3.94484   3.97705
  Beta virt. eigenvalues --    3.98283   3.98725   4.04467   4.05428   4.05907
  Beta virt. eigenvalues --    4.06204   4.16329   4.17547   4.25812   4.27995
  Beta virt. eigenvalues --    4.31736   4.34752   4.44639   4.47003   4.74826
  Beta virt. eigenvalues --    4.79531
          Condensed to atoms (all electrons):
               1          2          3          4          5          6
     1  C    5.073050   0.399028  -0.067280  -0.058567   0.423275   0.476770
     2  C    0.399028   5.025342   0.411020  -0.061021  -0.081301  -0.062781
     3  C   -0.067280   0.411020   5.049603   0.428709  -0.065440   0.009143
     4  C   -0.058567  -0.061021   0.428709   5.025190   0.409197   0.009189
     5  C    0.423275  -0.081301  -0.065440   0.409197   5.067096  -0.063707
     6  C    0.476770  -0.062781   0.009143   0.009189  -0.063707   4.776282
     7  C   -0.018830  -0.049770  -0.000675  -0.000505   0.013450   0.466017
     8  C   -0.038844  -0.048323   0.008841  -0.000354   0.000252  -0.049467
     9  C   -0.050245   0.535549  -0.073583   0.006010   0.009982  -0.019463
    10  C    0.007932  -0.024381  -0.047291  -0.000156  -0.000011   0.000333
    11  C   -0.000599  -0.052168  -0.028783   0.009312  -0.000064   0.000014
    12  C    0.007595  -0.061412   0.541676  -0.068017   0.008364  -0.000012
    13  C   -0.000018   0.009076  -0.035726  -0.047027  -0.000306  -0.000002
    14  C    0.000027  -0.000408  -0.047213  -0.034100   0.009081  -0.000001
    15  C    0.007682   0.008250  -0.067119   0.549692  -0.064812   0.000023
    16  C   -0.000878   0.000047   0.009068  -0.027640  -0.050116   0.000068
    17  C    0.008844  -0.000066  -0.000108  -0.046878  -0.035130   0.000334
    18  C   -0.055688   0.008390   0.006899  -0.070186   0.520965  -0.027523
    19  C   -0.046299  -0.000580  -0.000171   0.008878  -0.029768  -0.022416
    20  C   -0.030069   0.008739   0.000121  -0.000546  -0.046776   0.427239
    21  H    0.000809   0.000508  -0.000339   0.000003   0.000007   0.000745
    22  H   -0.000148   0.003914   0.000529   0.000011   0.000002  -0.000005
    23  H    0.000012   0.000659   0.004191  -0.000171   0.000001   0.000000
    24  H    0.000000  -0.000187   0.004173   0.000673   0.000016  -0.000000
    25  H    0.000001   0.000015   0.000666   0.004151  -0.000181  -0.000000
    26  H    0.000015   0.000001  -0.000175   0.004186   0.000664  -0.000000
    27  H   -0.000170   0.000001   0.000013   0.000502   0.004290   0.000001
    28  H    0.000651   0.000013   0.000001  -0.000153   0.003743   0.002337
    29  H    0.003454  -0.000116   0.000001   0.000010   0.000551  -0.034415
    30  H   -0.000362   0.000491   0.000008   0.000055  -0.000040   0.001175
               7          8          9         10         11         12
     1  C   -0.018830  -0.038844  -0.050245   0.007932  -0.000599   0.007595
     2  C   -0.049770  -0.048323   0.535549  -0.024381  -0.052168  -0.061412
     3  C   -0.000675   0.008841  -0.073583  -0.047291  -0.028783   0.541676
     4  C   -0.000505  -0.000354   0.006010  -0.000156   0.009312  -0.068017
     5  C    0.013450   0.000252   0.009982  -0.000011  -0.000064   0.008364
     6  C    0.466017  -0.049467  -0.019463   0.000333   0.000014  -0.000012
     7  C    5.464948   0.243773  -0.037791   0.003104  -0.000093   0.000107
     8  C    0.243773   5.382012   0.344177  -0.051325   0.003890   0.000289
     9  C   -0.037791   0.344177   4.851054   0.474464  -0.024596  -0.024379
    10  C    0.003104  -0.051325   0.474464   4.957079   0.549906  -0.025173
    11  C   -0.000093   0.003890  -0.024596   0.549906   4.996513   0.445825
    12  C    0.000107   0.000289  -0.024379  -0.025173   0.445825   4.705496
    13  C    0.000000   0.000004   0.000413   0.004049  -0.060285   0.451884
    14  C   -0.000001   0.000000   0.000028  -0.000158   0.004161  -0.024189
    15  C   -0.000004   0.000000   0.000075   0.000026   0.000362  -0.023944
    16  C    0.000004  -0.000000   0.000004   0.000001  -0.000006   0.000288
    17  C   -0.000001   0.000000  -0.000002  -0.000000   0.000001   0.000041
    18  C   -0.000522   0.000025   0.000018  -0.000002  -0.000001   0.000079
    19  C    0.005136  -0.000113   0.000025  -0.000000  -0.000000  -0.000002
    20  C   -0.075126   0.003840  -0.000382  -0.000005   0.000001  -0.000002
    21  H   -0.031635   0.358012  -0.017069  -0.000250  -0.000119   0.000016
    22  H   -0.000053  -0.002395  -0.037653   0.370602  -0.028100   0.002524
    23  H    0.000001  -0.000094   0.002756  -0.031604   0.364527  -0.031880
    24  H   -0.000000  -0.000000   0.000008  -0.000033  -0.002654  -0.033463
    25  H    0.000000   0.000000  -0.000000   0.000001  -0.000103   0.002402
    26  H    0.000000   0.000000  -0.000000  -0.000000  -0.000000   0.000007
    27  H   -0.000000  -0.000000  -0.000000   0.000000   0.000000  -0.000000
    28  H   -0.000113   0.000001  -0.000000   0.000000   0.000000  -0.000000
    29  H   -0.001675  -0.000087   0.000006  -0.000000  -0.000000  -0.000000
    30  H    0.048636   0.158124  -0.006760  -0.001674   0.000070   0.000003
              13         14         15         16         17         18
     1  C   -0.000018   0.000027   0.007682  -0.000878   0.008844  -0.055688
     2  C    0.009076  -0.000408   0.008250   0.000047  -0.000066   0.008390
     3  C   -0.035726  -0.047213  -0.067119   0.009068  -0.000108   0.006899
     4  C   -0.047027  -0.034100   0.549692  -0.027640  -0.046878  -0.070186
     5  C   -0.000306   0.009081  -0.064812  -0.050116  -0.035130   0.520965
     6  C   -0.000002  -0.000001   0.000023   0.000068   0.000334  -0.027523
     7  C    0.000000  -0.000001  -0.000004   0.000004  -0.000001  -0.000522
     8  C    0.000004   0.000000   0.000000  -0.000000   0.000000   0.000025
     9  C    0.000413   0.000028   0.000075   0.000004  -0.000002   0.000018
    10  C    0.004049  -0.000158   0.000026   0.000001  -0.000000  -0.000002
    11  C   -0.060285   0.004161   0.000362  -0.000006   0.000001  -0.000001
    12  C    0.451884  -0.024189  -0.023944   0.000288   0.000041   0.000079
    13  C    4.993922   0.557154  -0.025540   0.004258  -0.000163   0.000037
    14  C    0.557154   4.987957   0.450402  -0.060247   0.004106   0.000304
    15  C   -0.025540   0.450402   4.716037   0.437685  -0.027011  -0.022148
    16  C    0.004258  -0.060247   0.437685   4.998016   0.543564  -0.019216
    17  C   -0.000163   0.004106  -0.027011   0.543564   4.998754   0.462367
    18  C    0.000037   0.000304  -0.022148  -0.019216   0.462367   4.716416
    19  C    0.000000  -0.000001   0.000319   0.004615  -0.058849   0.429257
    20  C   -0.000000   0.000001   0.000029  -0.000230   0.004343  -0.018989
    21  H    0.000000  -0.000000   0.000000   0.000000   0.000000  -0.000001
    22  H   -0.000094   0.000001  -0.000000   0.000000   0.000000  -0.000000
    23  H   -0.002374  -0.000027   0.000007  -0.000000  -0.000000  -0.000000
    24  H    0.366454  -0.030225   0.002369  -0.000104   0.000001  -0.000000
    25  H   -0.030607   0.365804  -0.032961  -0.002564  -0.000034   0.000008
    26  H   -0.000031  -0.002407  -0.032232   0.364707  -0.031227   0.002434
    27  H    0.000001  -0.000093   0.002414  -0.030080   0.368105  -0.034358
    28  H   -0.000000  -0.000000   0.000008  -0.000008  -0.002385  -0.030549
    29  H    0.000000   0.000000  -0.000000   0.000001  -0.000100   0.002310
    30  H   -0.000000  -0.000000  -0.000000  -0.000000  -0.000000   0.000021
              19         20         21         22         23         24
     1  C   -0.046299  -0.030069   0.000809  -0.000148   0.000012   0.000000
     2  C   -0.000580   0.008739   0.000508   0.003914   0.000659  -0.000187
     3  C   -0.000171   0.000121  -0.000339   0.000529   0.004191   0.004173
     4  C    0.008878  -0.000546   0.000003   0.000011  -0.000171   0.000673
     5  C   -0.029768  -0.046776   0.000007   0.000002   0.000001   0.000016
     6  C   -0.022416   0.427239   0.000745  -0.000005   0.000000  -0.000000
     7  C    0.005136  -0.075126  -0.031635  -0.000053   0.000001  -0.000000
     8  C   -0.000113   0.003840   0.358012  -0.002395  -0.000094  -0.000000
     9  C    0.000025  -0.000382  -0.017069  -0.037653   0.002756   0.000008
    10  C   -0.000000  -0.000005  -0.000250   0.370602  -0.031604  -0.000033
    11  C   -0.000000   0.000001  -0.000119  -0.028100   0.364527  -0.002654
    12  C   -0.000002  -0.000002   0.000016   0.002524  -0.031880  -0.033463
    13  C    0.000000  -0.000000   0.000000  -0.000094  -0.002374   0.366454
    14  C   -0.000001   0.000001  -0.000000   0.000001  -0.000027  -0.030225
    15  C    0.000319   0.000029   0.000000  -0.000000   0.000007   0.002369
    16  C    0.004615  -0.000230   0.000000   0.000000  -0.000000  -0.000104
    17  C   -0.058849   0.004343   0.000000   0.000000  -0.000000   0.000001
    18  C    0.429257  -0.018989  -0.000001  -0.000000  -0.000000  -0.000000
    19  C    4.997086   0.554016   0.000001   0.000000   0.000000   0.000000
    20  C    0.554016   5.000784  -0.000072  -0.000000   0.000000   0.000000
    21  H    0.000001  -0.000072   0.389830   0.000911  -0.000000  -0.000000
    22  H    0.000000  -0.000000   0.000911   0.479060  -0.003814  -0.000002
    23  H    0.000000   0.000000  -0.000000  -0.003814   0.475397   0.002564
    24  H    0.000000   0.000000  -0.000000  -0.000002   0.002564   0.482641
    25  H   -0.000000  -0.000000  -0.000000  -0.000000  -0.000003  -0.003819
    26  H   -0.000102   0.000001  -0.000000  -0.000000   0.000000  -0.000002
    27  H   -0.002853   0.000004  -0.000000  -0.000000  -0.000000  -0.000000
    28  H    0.365463  -0.029943  -0.000000  -0.000000  -0.000000  -0.000000
    29  H   -0.027213   0.369850  -0.000001   0.000000  -0.000000  -0.000000
    30  H    0.000064  -0.001600  -0.002353   0.000114  -0.000001   0.000000
              25         26         27         28         29         30
     1  C    0.000001   0.000015  -0.000170   0.000651   0.003454  -0.000362
     2  C    0.000015   0.000001   0.000001   0.000013  -0.000116   0.000491
     3  C    0.000666  -0.000175   0.000013   0.000001   0.000001   0.000008
     4  C    0.004151   0.004186   0.000502  -0.000153   0.000010   0.000055
     5  C   -0.000181   0.000664   0.004290   0.003743   0.000551  -0.000040
     6  C   -0.000000  -0.000000   0.000001   0.002337  -0.034415   0.001175
     7  C    0.000000   0.000000  -0.000000  -0.000113  -0.001675   0.048636
     8  C    0.000000   0.000000  -0.000000   0.000001  -0.000087   0.158124
     9  C   -0.000000  -0.000000  -0.000000  -0.000000   0.000006  -0.006760
    10  C    0.000001  -0.000000   0.000000   0.000000  -0.000000  -0.001674
    11  C   -0.000103  -0.000000   0.000000   0.000000  -0.000000   0.000070
    12  C    0.002402   0.000007  -0.000000  -0.000000  -0.000000   0.000003
    13  C   -0.030607  -0.000031   0.000001  -0.000000   0.000000  -0.000000
    14  C    0.365804  -0.002407  -0.000093  -0.000000   0.000000  -0.000000
    15  C   -0.032961  -0.032232   0.002414   0.000008  -0.000000  -0.000000
    16  C   -0.002564   0.364707  -0.030080  -0.000008   0.000001  -0.000000
    17  C   -0.000034  -0.031227   0.368105  -0.002385  -0.000100  -0.000000
    18  C    0.000008   0.002434  -0.034358  -0.030549   0.002310   0.000021
    19  C   -0.000000  -0.000102  -0.002853   0.365463  -0.027213   0.000064
    20  C   -0.000000   0.000001   0.000004  -0.029943   0.369850  -0.001600
    21  H   -0.000000  -0.000000  -0.000000  -0.000000  -0.000001  -0.002353
    22  H   -0.000000  -0.000000  -0.000000  -0.000000   0.000000   0.000114
    23  H   -0.000003   0.000000  -0.000000  -0.000000  -0.000000  -0.000001
    24  H   -0.003819  -0.000002  -0.000000  -0.000000  -0.000000   0.000000
    25  H    0.481771   0.002565  -0.000002   0.000000  -0.000000  -0.000000
    26  H    0.002565   0.476654  -0.003768  -0.000003  -0.000000  -0.000000
    27  H   -0.000002  -0.003768   0.478318   0.002535  -0.000002   0.000000
    28  H    0.000000  -0.000003   0.002535   0.467479  -0.003451  -0.000001
    29  H   -0.000000  -0.000000  -0.000002  -0.003451   0.461887   0.000077
    30  H   -0.000000  -0.000000   0.000000  -0.000001   0.000077   0.510681
          Atomic-Atomic Spin Densities.
               1          2          3          4          5          6
     1  C    0.084859   0.013269  -0.001967   0.000015  -0.023622   0.002218
     2  C    0.013269  -0.002055   0.002589  -0.000681  -0.006042   0.006618
     3  C   -0.001967   0.002589   0.006981   0.002221  -0.002747   0.000396
     4  C    0.000015  -0.000681   0.002221   0.012755   0.000330  -0.000149
     5  C   -0.023622  -0.006042  -0.002747   0.000330   0.032162  -0.001435
     6  C    0.002218   0.006618   0.000396  -0.000149  -0.001435  -0.045388
     7  C   -0.026104  -0.008496  -0.000861  -0.000076   0.006174  -0.002041
     8  C   -0.003405   0.000934  -0.000138   0.000037   0.000130  -0.001921
     9  C    0.001431  -0.000291  -0.002051   0.000031   0.000474   0.002474
    10  C    0.000216   0.000056  -0.000706  -0.000001   0.000078  -0.000190
    11  C   -0.000067   0.000432   0.000518   0.000001  -0.000021   0.000012
    12  C   -0.000142   0.000363   0.000582   0.000243   0.000076  -0.000018
    13  C    0.000004  -0.000066  -0.000095  -0.000200  -0.000005   0.000000
    14  C    0.000025  -0.000004  -0.000142  -0.000565   0.000006   0.000001
    15  C    0.000154   0.000035   0.000103  -0.000796  -0.000172   0.000020
    16  C   -0.000045   0.000009   0.000016  -0.000504  -0.000401  -0.000008
    17  C    0.000124   0.000014   0.000009   0.000187  -0.000067  -0.000017
    18  C    0.000252  -0.000250  -0.000012  -0.000431   0.000458   0.000115
    19  C   -0.001630  -0.000092  -0.000013  -0.000085   0.001737   0.002065
    20  C    0.003325   0.000192   0.000026   0.000016  -0.001787   0.005361
    21  H    0.000049  -0.000320  -0.000017  -0.000000   0.000015  -0.000844
    22  H    0.000007  -0.000059  -0.000014   0.000000   0.000001  -0.000005
    23  H    0.000001   0.000008  -0.000025   0.000002   0.000000  -0.000000
    24  H   -0.000000   0.000001   0.000010   0.000007   0.000000  -0.000000
    25  H   -0.000000   0.000000   0.000005   0.000018  -0.000001  -0.000000
    26  H   -0.000000  -0.000000   0.000000   0.000004  -0.000002   0.000000
    27  H    0.000000  -0.000000  -0.000000   0.000001  -0.000005   0.000000
    28  H   -0.000086  -0.000001  -0.000000  -0.000001   0.000056   0.000116
    29  H    0.000901   0.000023   0.000001   0.000001  -0.000216  -0.003391
    30  H    0.000321  -0.000577   0.000025  -0.000004   0.000014  -0.003354
               7          8          9         10         11         12
     1  C   -0.026104  -0.003405   0.001431   0.000216  -0.000067  -0.000142
     2  C   -0.008496   0.000934  -0.000291   0.000056   0.000432   0.000363
     3  C   -0.000861  -0.000138  -0.002051  -0.000706   0.000518   0.000582
     4  C   -0.000076   0.000037   0.000031  -0.000001   0.000001   0.000243
     5  C    0.006174   0.000130   0.000474   0.000078  -0.000021   0.000076
     6  C   -0.002041  -0.001921   0.002474  -0.000190   0.000012  -0.000018
     7  C    1.059904  -0.109565  -0.008579   0.000741  -0.000031   0.000018
     8  C   -0.109565   0.182046  -0.004179  -0.000427  -0.000123  -0.000026
     9  C   -0.008579  -0.004179   0.055418  -0.007004   0.000634   0.000386
    10  C    0.000741  -0.000427  -0.007004   0.012404   0.000918   0.000257
    11  C   -0.000031  -0.000123   0.000634   0.000918  -0.010807  -0.002315
    12  C    0.000018  -0.000026   0.000386   0.000257  -0.002315  -0.004960
    13  C   -0.000001   0.000000  -0.000038  -0.000018   0.000232   0.001099
    14  C   -0.000000  -0.000000  -0.000007  -0.000002   0.000025   0.000210
    15  C   -0.000006   0.000000  -0.000009  -0.000002  -0.000002  -0.000057
    16  C    0.000000  -0.000000   0.000000   0.000000  -0.000000  -0.000012
    17  C   -0.000006  -0.000000  -0.000000  -0.000000  -0.000000  -0.000002
    18  C   -0.000110   0.000001   0.000003   0.000001   0.000000   0.000011
    19  C    0.000396   0.000016  -0.000003   0.000000  -0.000000   0.000000
    20  C   -0.003621  -0.000466   0.000071  -0.000002   0.000000  -0.000000
    21  H   -0.006728   0.008012  -0.004596   0.000609  -0.000010   0.000000
    22  H    0.000005   0.000198  -0.000880   0.000774  -0.000135   0.000000
    23  H    0.000001   0.000002  -0.000006  -0.000146   0.000112  -0.000024
    24  H    0.000000  -0.000000   0.000001  -0.000001   0.000011  -0.000006
    25  H    0.000000  -0.000000   0.000000  -0.000000   0.000000  -0.000001
    26  H    0.000000  -0.000000   0.000000   0.000000   0.000000   0.000000
    27  H   -0.000000  -0.000000   0.000000  -0.000000   0.000000   0.000000
    28  H    0.000005   0.000000   0.000000   0.000000  -0.000000   0.000000
    29  H    0.001573  -0.000096   0.000004  -0.000000   0.000000  -0.000000
    30  H   -0.002984   0.008515   0.000004   0.000090  -0.000003  -0.000000
              13         14         15         16         17         18
     1  C    0.000004   0.000025   0.000154  -0.000045   0.000124   0.000252
     2  C   -0.000066  -0.000004   0.000035   0.000009   0.000014  -0.000250
     3  C   -0.000095  -0.000142   0.000103   0.000016   0.000009  -0.000012
     4  C   -0.000200  -0.000565  -0.000796  -0.000504   0.000187  -0.000431
     5  C   -0.000005   0.000006  -0.000172  -0.000401  -0.000067   0.000458
     6  C    0.000000   0.000001   0.000020  -0.000008  -0.000017   0.000115
     7  C   -0.000001  -0.000000  -0.000006   0.000000  -0.000006  -0.000110
     8  C    0.000000  -0.000000   0.000000  -0.000000  -0.000000   0.000001
     9  C   -0.000038  -0.000007  -0.000009   0.000000  -0.000000   0.000003
    10  C   -0.000018  -0.000002  -0.000002   0.000000  -0.000000   0.000001
    11  C    0.000232   0.000025  -0.000002  -0.000000  -0.000000   0.000000
    12  C    0.001099   0.000210  -0.000057  -0.000012  -0.000002   0.000011
    13  C    0.000145  -0.000805   0.000135  -0.000003   0.000000  -0.000003
    14  C   -0.000805  -0.003882   0.000760   0.000295   0.000034  -0.000052
    15  C    0.000135   0.000760  -0.001677   0.000764   0.000155  -0.000293
    16  C   -0.000003   0.000295   0.000764   0.000335  -0.001162   0.000303
    17  C    0.000000   0.000034   0.000155  -0.001162  -0.003231   0.001170
    18  C   -0.000003  -0.000052  -0.000293   0.000303   0.001170   0.005434
    19  C   -0.000000  -0.000001  -0.000015   0.000022   0.000313  -0.003771
    20  C    0.000000   0.000000   0.000005  -0.000001   0.000037   0.000278
    21  H   -0.000000  -0.000000  -0.000000   0.000000  -0.000000  -0.000000
    22  H   -0.000001  -0.000000  -0.000000   0.000000  -0.000000   0.000000
    23  H   -0.000028  -0.000000  -0.000000   0.000000  -0.000000   0.000000
    24  H   -0.000089   0.000021   0.000001  -0.000000  -0.000000   0.000000
    25  H   -0.000011  -0.000035   0.000019   0.000002  -0.000001   0.000001
    26  H   -0.000000  -0.000007   0.000001   0.000001  -0.000003   0.000005
    27  H    0.000000  -0.000000  -0.000001   0.000013   0.000023  -0.000006
    28  H   -0.000000  -0.000000  -0.000000   0.000000   0.000001  -0.000337
    29  H    0.000000   0.000000   0.000000  -0.000000   0.000003   0.000178
    30  H    0.000000   0.000000  -0.000000   0.000000  -0.000000  -0.000002
              19         20         21         22         23         24
     1  C   -0.001630   0.003325   0.000049   0.000007   0.000001  -0.000000
     2  C   -0.000092   0.000192  -0.000320  -0.000059   0.000008   0.000001
     3  C   -0.000013   0.000026  -0.000017  -0.000014  -0.000025   0.000010
     4  C   -0.000085   0.000016  -0.000000   0.000000   0.000002   0.000007
     5  C    0.001737  -0.001787   0.000015   0.000001   0.000000   0.000000
     6  C    0.002065   0.005361  -0.000844  -0.000005  -0.000000  -0.000000
     7  C    0.000396  -0.003621  -0.006728   0.000005   0.000001   0.000000
     8  C    0.000016  -0.000466   0.008012   0.000198   0.000002  -0.000000
     9  C   -0.000003   0.000071  -0.004596  -0.000880  -0.000006   0.000001
    10  C    0.000000  -0.000002   0.000609   0.000774  -0.000146  -0.000001
    11  C   -0.000000   0.000000  -0.000010  -0.000135   0.000112   0.000011
    12  C    0.000000  -0.000000   0.000000   0.000000  -0.000024  -0.000006
    13  C   -0.000000   0.000000  -0.000000  -0.000001  -0.000028  -0.000089
    14  C   -0.000001   0.000000  -0.000000  -0.000000  -0.000000   0.000021
    15  C   -0.000015   0.000005  -0.000000  -0.000000  -0.000000   0.000001
    16  C    0.000022  -0.000001   0.000000   0.000000   0.000000  -0.000000
    17  C    0.000313   0.000037  -0.000000  -0.000000  -0.000000  -0.000000
    18  C   -0.003771   0.000278  -0.000000   0.000000   0.000000   0.000000
    19  C   -0.020056   0.000519   0.000000   0.000000   0.000000   0.000000
    20  C    0.000519   0.024447  -0.000011  -0.000000  -0.000000  -0.000000
    21  H    0.000000  -0.000011   0.001652   0.000030   0.000000   0.000000
    22  H    0.000000  -0.000000   0.000030   0.000294   0.000068   0.000000
    23  H    0.000000  -0.000000   0.000000   0.000068   0.001090   0.000013
    24  H    0.000000  -0.000000   0.000000   0.000000   0.000013   0.000079
    25  H    0.000000  -0.000000   0.000000   0.000000   0.000000   0.000007
    26  H    0.000000  -0.000000   0.000000   0.000000   0.000000   0.000000
    27  H   -0.000001   0.000002  -0.000000  -0.000000  -0.000000   0.000000
    28  H    0.000398  -0.000015   0.000000   0.000000   0.000000   0.000000
    29  H    0.000034  -0.001638  -0.000002  -0.000000  -0.000000  -0.000000
    30  H   -0.000001   0.000049   0.000187  -0.000016  -0.000000  -0.000000
              25         26         27         28         29         30
     1  C   -0.000000  -0.000000   0.000000  -0.000086   0.000901   0.000321
     2  C    0.000000  -0.000000  -0.000000  -0.000001   0.000023  -0.000577
     3  C    0.000005   0.000000  -0.000000  -0.000000   0.000001   0.000025
     4  C    0.000018   0.000004   0.000001  -0.000001   0.000001  -0.000004
     5  C   -0.000001  -0.000002  -0.000005   0.000056  -0.000216   0.000014
     6  C   -0.000000   0.000000   0.000000   0.000116  -0.003391  -0.003354
     7  C    0.000000   0.000000  -0.000000   0.000005   0.001573  -0.002984
     8  C   -0.000000  -0.000000  -0.000000   0.000000  -0.000096   0.008515
     9  C    0.000000   0.000000   0.000000   0.000000   0.000004   0.000004
    10  C   -0.000000   0.000000  -0.000000   0.000000  -0.000000   0.000090
    11  C    0.000000   0.000000   0.000000  -0.000000   0.000000  -0.000003
    12  C   -0.000001   0.000000   0.000000   0.000000  -0.000000  -0.000000
    13  C   -0.000011  -0.000000   0.000000  -0.000000   0.000000   0.000000
    14  C   -0.000035  -0.000007  -0.000000  -0.000000   0.000000   0.000000
    15  C    0.000019   0.000001  -0.000001  -0.000000   0.000000  -0.000000
    16  C    0.000002   0.000001   0.000013   0.000000  -0.000000   0.000000
    17  C   -0.000001  -0.000003   0.000023   0.000001   0.000003  -0.000000
    18  C    0.000001   0.000005  -0.000006  -0.000337   0.000178  -0.000002
    19  C    0.000000   0.000000  -0.000001   0.000398   0.000034  -0.000001
    20  C   -0.000000  -0.000000   0.000002  -0.000015  -0.001638   0.000049
    21  H    0.000000   0.000000  -0.000000   0.000000  -0.000002   0.000187
    22  H    0.000000   0.000000  -0.000000   0.000000  -0.000000  -0.000016
    23  H    0.000000   0.000000  -0.000000   0.000000  -0.000000  -0.000000
    24  H    0.000007   0.000000   0.000000   0.000000  -0.000000  -0.000000
    25  H    0.000231   0.000001   0.000000   0.000000  -0.000000  -0.000000
    26  H    0.000001   0.000006   0.000002   0.000000  -0.000000   0.000000
    27  H    0.000000   0.000002   0.000049  -0.000002   0.000000  -0.000000
    28  H    0.000000   0.000000  -0.000002   0.001144  -0.000211   0.000000
    29  H   -0.000000  -0.000000   0.000000  -0.000211   0.004620  -0.000002
    30  H   -0.000000   0.000000  -0.000000   0.000000  -0.000002  -0.050623
 Mulliken charges and spin densities:
               1          2
     1  C   -0.041147   0.050102
     2  C    0.031469   0.005608
     3  C   -0.040759   0.004692
     4  C   -0.040447   0.012375
     5  C   -0.033284   0.005190
     6  C    0.110121  -0.039364
     7  C   -0.028387   0.899608
     8  C   -0.312237   0.079546
     9  C    0.067355   0.033289
    10  C   -0.185436   0.007646
    11  C   -0.177008  -0.010621
    12  C    0.125878  -0.004314
    13  C   -0.185080   0.000254
    14  C   -0.179956  -0.004127
    15  C    0.120390  -0.000876
    16  C   -0.171236  -0.000375
    17  C   -0.188505  -0.002419
    18  C    0.129650   0.002942
    19  C   -0.176493  -0.020166
    20  C   -0.165229   0.026786
    21  H    0.300998  -0.001973
    22  H    0.214597   0.000268
    23  H    0.219853   0.001067
    24  H    0.211589   0.000055
    25  H    0.212889   0.000236
    26  H    0.218713   0.000008
    27  H    0.215143   0.000076
    28  H    0.224374   0.001067
    29  H    0.228912   0.001781
    30  H    0.293273  -0.048361
 Sum of Mulliken charges =   1.00000   1.00000
 Mulliken charges and spin densities with hydrogens summed into heavy atoms:
               1          2
[...]
 004977,0.00001545,-0.00001862,0.00001438,-0.00002694,-0.00002019,-0.00
 003703,-0.00077825,-0.00035487,0.00016120,-0.13705703,0.18642141,-0.00
 025848,-0.00005467,0.00027816,0.00091102,-0.00008321,0.00027032,-0.001
 96431,-0.00198435,0.00398589,0.00053368,0.00119457,-0.00012830,0.00035
 149,0.00014481,-0.00074709,0.00024438,-0.00009186,-0.00013262,-0.00017
 518,0.00003248,-0.00001107,0.00006037,-0.00004247,0.00005364,-0.000485
 79,0.00020436,-0.00002086,0.00022395,-0.00059886,-0.00021868,-0.000488
 48,0.00147610,-0.00193962,0.00533210,-0.00811583,-0.00102674,0.0723111
 6,-0.06642553,-0.07137648,-0.00308616,-0.00090297,0.00422024,0.0004463
 9,-0.00312986,0.00802466,-0.00001013,-0.00039815,-0.00001082,0.0002955
 7,0.00002386,-0.00048214,0.00012341,0.00004049,0.00017863,-0.00001475,
 0.00009780,0.00000058,-0.00008542,-0.00002114,-0.00007402,0.00000623,-
 0.00000832,0.00000917,0.00004055,-0.00000799,0.00012557,-0.00014336,-0
 .00027697,0.00039146,-0.07357504,0.07661525,0.06335570,-0.00030289,0.0
 0031235,0.00002622,0.00025595,0.00027768,-0.00011444,-0.00092857,0.000
 02118,0.00010190,-0.00377573,0.00331272,0.00079047,0.00072681,0.000832
 93,0.00062371,0.00005549,0.00005707,-0.00007308,-0.00000990,-0.0000054
 8,0.00004977,-0.00006507,0.00008775,-0.00010251,-0.00026520,-0.0000365
 1,0.00010251,-0.00036716,-0.00030829,0.00014504,0.00067067,-0.00110974
 ,-0.00051156,-0.00541159,-0.00093094,0.00115386,-0.00395166,-0.0283378
 5,-0.01070572,-0.07406529,-0.05875183,-0.02234531,0.01015542,0.0211817
 4,0.00894089,0.00176630,-0.00014770,0.00033122,-0.00010304,-0.00042952
 ,-0.00016238,0.00024992,0.00013472,0.00009668,-0.00002872,-0.00012222,
 -0.00002072,0.00004348,0.00006669,0.00000314,-0.00000104,0.00000511,0.
 00000880,0.00002843,-0.00015331,0.00002088,-0.00001032,0.00000056,0.00
 000953,0.00073026,0.00010683,-0.00055242,0.07495427,0.00010682,-0.0002
 5851,-0.00009154,-0.00000697,-0.00026046,0.00025850,0.00081849,0.00047
 818,0.00040932,0.00290134,-0.00142958,-0.00142225,-0.00052444,-0.00004
 833,-0.00052097,-0.00007192,-0.00002008,0.00010160,0.00007002,0.000024
 45,-0.00010037,0.00006676,-0.00013214,0.00009525,0.00008670,0.00022889
 ,-0.00007862,-0.00001204,-0.00001019,0.00025671,0.00011223,0.00010320,
 -0.00000690,-0.00106058,0.00228779,-0.00300742,-0.00098074,-0.00295474
 ,-0.00288261,-0.06023674,-0.29943956,-0.09781936,-0.00631320,-0.010951
 27,-0.00604064,-0.00052121,0.00032203,0.00064524,0.00011923,0.00023269
 ,0.00011322,-0.00012187,-0.00018631,-0.00002455,0.00001647,0.00005235,
 0.00002282,0.00001286,-0.00004882,0.00002695,0.00000158,-0.00000464,-0
 .00001020,0.00000099,-0.00000584,-0.00002417,-0.00003753,-0.00000063,-
 0.00004843,0.00032201,-0.00006491,0.00236064,0.06455083,0.31232752,-0.
 00003255,0.00012100,0.00015063,-0.00026917,-0.00047959,-0.00085780,-0.
 00100305,0.00112139,0.00008564,0.00254931,-0.00055664,0.00402164,-0.00
 063109,-0.00032578,0.00001800,0.00009395,-0.00023961,-0.00002971,-0.00
 003536,0.00006092,-0.00002756,0.00011679,-0.00009887,0.00014829,-0.000
 13719,0.00018229,0.00015869,-0.00024932,-0.00023907,-0.00059198,0.0001
 9988,-0.00021574,-0.00015114,0.00088523,-0.00340693,0.00814134,0.00341
 457,-0.00000594,0.00456912,-0.02678168,-0.09753012,-0.07616782,-0.0003
 2626,-0.00956206,-0.00013240,-0.00022529,0.00144964,-0.00182268,0.0001
 1993,-0.00057084,-0.00024131,0.00033483,0.00035250,0.00000981,-0.00006
 362,0.00004551,0.00005583,-0.00004619,-0.00000679,-0.00004965,-0.00000
 791,0.00000552,-0.00001510,0.00002168,-0.00001617,0.00006159,0.0000445
 0,-0.00002220,0.00014407,-0.00064810,0.00232107,-0.00494798,0.02251725
 ,0.10780975,0.06696716,-0.00014967,-0.00043681,0.00028569,-0.00051899,
 -0.00009120,-0.00007160,0.00027112,-0.00113613,-0.00082000,-0.00588006
 ,0.00029983,-0.00159406,-0.00073958,0.00107343,0.00017563,-0.00004538,
 0.00032821,-0.00013224,-0.00023596,-0.00008860,0.00014022,-0.00006335,
 0.00005220,-0.00012073,0.00010801,-0.00011687,0.00010807,-0.00004828,-
 0.00006687,0.00003001,0.00004230,0.00010180,0.00003484,0.00008865,-0.0
 0034400,-0.00009245,0.00018971,0.00047451,0.00020346,0.00147946,-0.000
 81456,0.00018462,-0.00541053,-0.02547230,-0.01078573,-0.10632912,-0.09
 919585,-0.04481313,0.01083787,0.01693395,0.00639258,-0.00128839,0.0039
 6959,-0.00287205,0.00091478,0.00043462,0.00040341,-0.00008191,0.000340
 39,0.00004422,0.00000832,-0.00002745,0.00000401,-0.00000241,0.00000245
 ,-0.00001005,-0.00002563,-0.00001703,0.00000675,-0.00002525,0.00002009
 ,-0.00002830,-0.00039848,0.00075204,0.00026261,0.10690932,-0.00016285,
 0.00003490,0.00014183,0.00007596,-0.00006650,-0.00005033,0.00027502,0.
 00039036,0.00001449,0.00074081,0.00067262,-0.00059024,0.00025327,0.000
 35272,0.00039131,0.00020719,0.00007245,0.00000935,-0.00007127,-0.00003
 682,0.00002272,-0.00004780,0.00006621,-0.00006495,0.00002271,-0.000021
 85,0.00003237,-0.00002831,0.00003422,0.00002785,-0.00002106,-0.0000368
 6,0.00000495,-0.00008618,0.00000131,0.00004467,-0.00008494,-0.00005905
 ,-0.00001778,-0.00045351,0.00058399,0.00070016,0.00194971,0.00487876,0
 .00092289,-0.09767547,-0.26661512,-0.08970791,-0.01030016,-0.01760090,
 -0.00908035,0.00401618,-0.00187499,-0.00158502,-0.00080481,-0.00014327
 ,-0.00030987,0.00005555,-0.00031475,0.00027894,0.00000162,-0.00000361,
 -0.00000747,-0.00000356,-0.00000110,-0.00000570,-0.00000138,0.00000232
 ,0.00000056,-0.00001640,0.00001029,-0.00003396,-0.00062264,-0.00024397
 ,-0.00018169,0.10332187,0.27953041,-0.00013572,-0.00051432,-0.00087064
 ,0.00015749,0.00005827,0.00016631,0.00028131,-0.00060141,-0.00002640,-
 0.00229793,0.00119780,0.00400702,0.00146454,0.00029232,0.00009706,0.00
 016534,0.00001613,0.00015193,-0.00009957,-0.00000505,0.00006801,0.0001
 3817,-0.00004959,-0.00001923,-0.00026114,-0.00003832,-0.00005278,0.000
 05051,-0.00010492,-0.00007617,0.00010705,0.00003790,0.00004022,-0.0000
 6467,0.00045322,0.00000690,-0.00042667,-0.00035191,-0.00023726,0.00109
 909,0.00098006,-0.00181476,-0.00595773,-0.00781778,0.00004815,-0.04115
 272,-0.09237621,-0.07680347,-0.00269668,0.00233464,0.00478682,-0.00297
 510,-0.00211055,0.00813895,-0.00024313,-0.00004050,-0.00021478,0.00005
 557,-0.00034556,-0.00057015,-0.00000306,0.00001862,0.00006395,0.000007
 78,-0.00000576,0.00000351,-0.00000833,-0.00000455,0.00000382,0.0000069
 0,-0.00004125,0.00011902,-0.00032139,0.00003189,0.00037223,0.05118150,
 0.09765846,0.06725647,0.00026704,0.00044796,-0.00045931,-0.00023003,-0
 .00006830,-0.00005523,-0.00006259,-0.00010438,0.00013564,0.00044318,-0
 .00027721,0.00047477,0.00027352,-0.00171666,-0.00104541,-0.00020458,-0
 .00016044,0.00006221,0.00018162,0.00003000,-0.00004007,-0.00002921,-0.
 00000535,0.00009172,0.00018181,0.00005032,0.00002011,-0.00003606,0.000
 11484,0.00004188,-0.00009240,-0.00009042,0.00002072,0.00013875,0.00009
 083,-0.00002465,-0.00012881,0.00007997,0.00024511,-0.00014526,-0.00033
 296,-0.00024507,0.00097267,0.00316361,-0.00215936,-0.01210049,-0.00159
 250,-0.00580986,-0.31568548,-0.01749299,-0.09864306,-0.00473173,0.0015
 8332,-0.00252866,0.00025109,-0.00004301,0.00072812,0.00013468,-0.00002
 718,0.00005700,0.00000352,0.00000107,-0.00001898,-0.00001525,0.0000018
 2,-0.00002160,-0.00000420,0.00000248,-0.00000603,-0.00004473,-0.000029
 61,-0.00000255,-0.00001292,0.00003563,-0.00003253,0.00017203,-0.000542
 74,0.00199645,0.33079044,-0.00086807,0.00070244,-0.00088855,-0.0004599
 7,-0.00047671,0.00007057,-0.00036266,0.00017084,0.00014147,0.00029979,
 -0.00102532,0.00010580,-0.00168894,-0.00548334,-0.00136085,-0.00030556
 ,-0.00001788,-0.00000774,0.00030291,0.00009221,-0.00013597,0.00002525,
 -0.00009083,0.00020500,0.00017953,0.00025171,-0.00002227,-0.00006133,0
 .00010951,0.00003872,-0.00012801,-0.00007636,0.00006399,0.00014101,-0.
 00022499,-0.00010922,0.00035524,-0.00027843,-0.00007373,0.00084710,0.0
 0094219,0.00052143,0.00270665,-0.00392765,-0.00242754,0.02604001,0.004
 61473,0.00917922,-0.01863091,-0.06003511,-0.00929240,-0.02633715,0.003
 35606,-0.00998791,-0.00044876,0.00175340,-0.00002187,0.00050763,0.0000
 6300,0.00016110,0.00000422,-0.00000014,-0.00002999,-0.00002148,0.00001
 828,-0.00000682,-0.00000451,-0.00000102,-0.00000967,0.00012867,0.00007
 453,-0.00002496,-0.00000046,-0.00000237,-0.00002852,-0.00032400,0.0004
 7573,0.00136186,0.01760859,0.05941651,-0.00083144,0.00043144,0.0003041
 7,0.00019663,-0.00021228,0.00024899,-0.00012593,0.00033072,-0.00071878
 ,0.00032681,0.00125470,-0.00015638,0.00025564,-0.00269628,0.00403239,0
 .00052047,-0.00012615,-0.00002503,-0.00009000,-0.00002005,0.00007313,0
 .00016001,-0.00004765,-0.00003700,-0.00031230,0.00008259,-0.00011932,0
 .00007161,-0.00010898,-0.00008260,0.00009821,0.00009993,-0.00001352,-0
 .00010923,0.00010365,0.00018365,-0.00020611,0.00020778,-0.00047971,-0.
 00024866,-0.00032872,-0.00001587,-0.00232412,-0.00206801,0.00795534,0.
 00168421,-0.00265544,0.00410464,-0.09982296,-0.00521260,-0.07268172,-0
 .00927550,-0.00294422,-0.00115487,0.00135960,0.00082821,-0.00196123,-0
 .00054613,-0.00031426,-0.00020961,0.00000073,-0.00000164,0.00000872,0.
 00001990,0.00000324,0.00006465,0.00000971,-0.00000005,0.00000473,-0.00
 001504,-0.00002145,0.00003262,0.00000023,-0.00004442,0.00011998,0.0019
 5011,0.00144461,-0.00489559,0.10735585,0.01230743,0.06489335,0.0006572
 8,0.00039320,0.00036606,-0.00012929,0.00007883,0.00021110,-0.00010075,
 0.00008175,-0.00008745,0.00003462,-0.00029874,-0.00020288,0.00033812,0
 .00115819,-0.00099262,0.00063042,-0.00302554,-0.00211791,-0.00025427,0
 .00007320,-0.00047491,0.00007268,-0.00012582,0.00027620,0.00003758,0.0
 0015788,-0.00009135,0.00001602,-0.00005758,0.00000577,0.00003023,0.000
 05953,0.00000238,-0.00000387,-0.00006799,0.00006419,-0.00000881,0.0000
 1695,0.00002433,0.00001356,0.00000782,0.00001283,-0.00014056,-0.000005
 32,0.00001633,0.00011681,0.00001953,0.00004027,0.00037652,0.00003689,0
 .00076329,-0.00339949,-0.00109798,-0.00253117,-0.31457971,0.03098727,-
 0.09557770,-0.01281787,0.00247936,-0.00608675,0.00000433,0.00002171,0.
 00006571,-0.00000390,-0.00000106,0.00000095,-0.00001475,0.00000152,-0.
 00002290,-0.00000176,0.00000519,-0.00000687,-0.00000495,0.00000741,0.0
 0000313,0.00001225,0.00002587,-0.00004726,-0.00021748,0.00066442,-0.00
 006453,0.32926258,-0.00040537,-0.00137663,0.00016421,0.00014898,-0.000
 03434,-0.00013706,0.00021189,-0.00041364,0.00005076,0.00114416,0.00049
 349,0.00073656,0.00173789,-0.00536172,0.00102136,-0.00342882,-0.003384
 15,0.00188189,-0.00115844,0.00069303,-0.00033354,-0.00032540,-0.000378
 67,0.00009623,0.00000155,-0.00012991,0.00002362,0.00005337,0.00001357,
 -0.00004835,0.00002928,-0.00002622,-0.00003875,0.00002874,0.00008803,-
 0.00007311,0.00008075,0.00002458,-0.00000679,-0.00012761,-0.00000563,-
 0.00003659,0.00029209,0.00024116,0.00012657,-0.00052515,0.00007933,-0.
 00018881,0.00033893,0.00170119,0.00007491,0.02665067,0.00257736,0.0102
 4657,0.03268793,-0.06324231,0.01334202,-0.02488580,0.00568889,-0.00854
 202,-0.00010406,0.00008333,0.00001164,0.00000480,-0.00000277,0.0000034
 3,0.00002334,0.00001390,0.00001217,-0.00000222,-0.00000418,0.00000585,
 0.00002246,-0.00001718,-0.00000826,-0.00001209,-0.00002087,0.00000684,
 -0.00069912,-0.00041562,-0.00030889,-0.03207261,0.06245684,0.00067846,
 -0.00107195,-0.00003185,-0.00057998,0.00006599,-0.00084524,-0.00004326
 ,-0.00009601,0.00021690,-0.00038037,-0.00037003,-0.00007221,0.00037392
 ,0.00236016,0.00426100,-0.00242541,0.00149234,0.00791675,-0.00026400,0
 .00057696,0.00050964,-0.00006190,-0.00047856,-0.00025329,0.00005172,0.
 00006810,0.00016756,0.00000961,-0.00001157,-0.00002694,0.00001451,-0.0
 0004741,-0.00001974,-0.00009163,0.00021370,-0.00009420,-0.00005675,-0.
 00003597,-0.00006627,0.00000746,-0.00008050,0.00005652,0.00036630,0.00
 014960,-0.00002917,-0.00050800,0.00028197,-0.00024267,0.00138845,-0.00
 075228,-0.00199182,-0.00882762,0.00344145,0.00046852,-0.09689924,0.009
 16663,-0.07308770,0.00113180,0.00267226,0.00441419,-0.00008663,0.00001
 829,-0.00017633,0.00001229,-0.00000433,0.00000195,0.00002317,-0.000006
 29,0.00007307,-0.00000116,-0.00000968,0.00000221,-0.00000592,0.0000052
 7,0.00000313,-0.00003738,-0.00002768,0.00013669,-0.00008160,0.00027997
 ,0.00038989,0.10448255,-0.01671736,0.06338182,-0.00609266,-0.00045783,
 -0.00144005,0.00048851,0.00078792,-0.00094006,-0.00048502,0.00018676,0
 .00001330,0.00002313,0.00004639,0.00010602,-0.00041773,-0.00039170,0.0
 0038766,-0.00610337,0.02543082,-0.00867479,0.00169579,0.00078521,0.000
 33329,-0.00030512,-0.00004542,-0.00004226,0.00016610,-0.00002832,0.000
 00911,-0.00005489,0.00004807,0.00005659,-0.00006225,-0.00004102,0.0000
 2656,0.00019479,-0.00010579,0.00001279,0.00008957,0.00007267,0.0000468
 8,-0.00008453,0.00009410,0.00005171,0.00002680,-0.00003239,-0.00001676
 ,-0.00027358,-0.00029320,-0.00002919,0.00098825,-0.00052894,0.00040940
 ,-0.00205869,-0.00337989,-0.00293181,0.01079112,-0.01858376,0.00621641
 ,-0.09574046,0.09429548,-0.03720046,-0.00004004,0.00002148,-0.00002261
 ,-0.00002094,0.00001533,0.00000224,-0.00000253,-0.00000202,-0.00000764
 ,0.00000778,0.00002837,-0.00001249,0.00000110,0.00000170,-0.00000824,0
 .00008962,-0.00007794,-0.00003048,0.00000673,0.00000471,-0.00003692,0.
 00021388,0.00028214,0.00181604,0.09696619,-0.00070083,0.00077533,0.000
 34815,-0.00014518,0.00041435,0.00020143,-0.00005308,0.00002720,0.00003
 482,0.00002108,0.00022153,-0.00001569,-0.00029476,0.00008649,-0.000407
 55,-0.00164512,0.00371306,-0.00103779,0.00059996,0.00004736,-0.0004254
 8,0.00026459,-0.00010958,0.00000591,0.00006104,0.00011195,-0.00005296,
 0.00001514,-0.00001973,-0.00001154,0.00000966,0.00001182,-0.00000788,-
 0.00000871,0.00006380,-0.00003409,-0.00002174,0.00000046,-0.00000990,0
 .00001786,-0.00000536,0.00001067,-0.00018216,-0.00002858,-0.00004425,-
 0.00006414,-0.00029708,-0.00023247,0.00073827,-0.00011139,0.00033811,-
 0.00373790,-0.00143043,0.00110542,0.00906623,-0.01691387,0.00724396,0.
 09359636,-0.28989943,0.08360260,-0.00000393,0.00000341,0.00000934,0.00
 000073,0.00000192,0.00000400,0.00000214,-0.00000019,0.00000201,0.00000
 600,-0.00000308,0.00001385,-0.00000260,-0.00000035,-0.00000154,0.00007
 296,-0.00006351,0.00000247,-0.00002635,-0.00001848,0.00001806,0.000489
 77,0.00056819,-0.00119462,-0.09818566,0.30286213,-0.00257513,-0.001314
 08,0.00365167,0.00019160,0.00066436,0.00078022,-0.00027669,0.00003325,
 0.00018094,0.00026837,0.00022883,-0.00061028,0.00132086,0.00031980,-0.
 00029694,-0.00584432,0.00631497,-0.00116834,0.00073737,-0.00043438,-0.
 00164780,0.00001558,0.00008657,-0.00003442,0.00015002,-0.00010621,-0.0
 0008923,-0.00003944,0.00010847,-0.00003295,-0.00001979,-0.00013043,-0.
 00001643,0.00006152,0.00009073,-0.00019177,0.00005585,0.00001988,-0.00
 005716,-0.00000360,0.00000707,0.00001234,0.00010690,0.00003783,0.00016
 706,0.00012851,0.00025050,-0.00048873,-0.00022681,0.00017042,-0.000172
 88,-0.00255771,0.00145389,0.00809997,-0.00183890,-0.00230369,0.0044895
 3,-0.03359762,0.08528618,-0.06474997,-0.00002060,0.00005288,0.00006633
 ,0.00000407,0.00000196,0.00001026,0.00000373,0.00000726,0.00000360,0.0
 0001282,-0.00001421,0.00005965,0.00000349,-0.00000908,-0.00000827,-0.0
 0003123,-0.00001546,0.00007998,-0.00004600,-0.00001085,0.00012671,0.00
 195138,-0.00126465,-0.00499995,0.04196623,-0.08953164,0.05688476,-0.00
 611429,0.00903814,0.00279004,-0.01338323,-0.00337122,-0.00089320,-0.00
 175596,0.00038433,0.00255826,0.00025028,-0.00036757,-0.00020261,-0.001
 79462,-0.00000788,-0.00342084,-0.02190798,-0.02195102,0.01841546,0.029
 27983,-0.00040894,-0.04390483,0.00754108,-0.03341720,0.05016167,0.0001
 9638,0.03332101,-0.01103828,0.00547166,-0.00705639,-0.00208860,0.00334
 674,0.00431681,-0.00050435,-0.00088603,-0.00077684,-0.00094158,0.00107
 575,0.00026057,-0.00024073,0.00047653,0.00046258,0.00038014,-0.0027469
 8,0.00095104,0.00027455,-0.00005384,-0.00066827,-0.00042269,0.00065964
 ,-0.00110562,0.00019767,0.00033170,0.00089964,0.00124680,-0.00000255,-
 0.00496519,0.00031587,0.00833938,0.00148603,0.00110791,-0.00466307,-0.
 00364293,-0.01921293,-0.00001950,-0.00003514,0.00003883,-0.00005269,0.
 00005071,0.00013395,0.00005325,0.00017208,0.00000943,0.00006445,-0.000
 09583,-0.00006615,0.00011957,0.00005526,0.00000987,-0.00007586,-0.0001
 7392,-0.00000084,-0.00013945,0.00000772,-0.00000543,-0.00000755,0.0001
 1038,0.00009954,-0.00360264,0.00512037,-0.00435840,0.00082202,0.001168
 63,0.00156429,0.00228993,-0.00033066,-0.00123733,-0.00283990,-0.000094
 44,0.00053137,0.00036627,-0.00026366,-0.00190268,-0.00002754,0.0040708
 7,0.00556186,0.00303905,-0.02124209,-0.00616173,0.00362503,-0.01012375
 ,-0.00374390,-0.03474056,0.00273770,-0.01188260,0.01755602,-0.00113813
 ,0.00258589,0.00111317,-0.00129659,-0.00077832,-0.00039377,-0.00074332
 ,0.00006246,0.00077490,-0.00016905,-0.00011350,0.00015363,-0.00047260,
 -0.00014736,-0.00020386,0.00056781,-0.00077750,0.00003968,0.00028785,-
 0.00009529,0.00009536,-0.00025167,0.00045212,-0.00006923,0.00093446,-0
 .00125798,0.00015872,0.00051963,0.00221482,-0.00037743,-0.00310818,-0.
 00022216,-0.00051541,-0.00281768,-0.00121129,-0.00763481,0.00007863,0.
 00007676,0.00016002,0.00005993,0.00002702,-0.00005043,-0.00001385,-0.0
 0008753,-0.00000896,-0.00001152,0.00002278,0.00002676,-0.00003419,-0.0
 0000311,-0.00004282,-0.00000121,0.00003313,-0.00000128,-0.00001367,0.0
 0009097,0.00011155,0.00005273,-0.00000795,-0.00000014,0.02652764,0.020
 76515,-0.00254816,0.00114074,-0.00046383,0.00227646,-0.00061455,-0.000
 32030,0.00043671,0.00109211,0.00057881,-0.00017527,-0.00047982,-0.0000
 4726,0.00073147,0.00116026,0.00039329,-0.00006769,0.00096876,0.0031096
 9,0.01675741,-0.01778169,-0.08532212,-0.02582585,-0.00342398,-0.085043
 86,0.00126869,0.00130473,0.00088686,-0.00056302,0.00007749,0.00080128,
 -0.00018791,-0.00079461,-0.00018593,0.00118711,0.00027862,-0.00029594,
 -0.00030353,-0.00015177,-0.00000719,0.00036109,-0.00003531,0.00000749,
 0.00019118,0.00030549,-0.00011469,-0.00034086,0.00025133,-0.00001066,0
 .00011652,-0.00034269,0.00000611,-0.00081987,0.00105008,-0.00029892,-0
 .00030625,-0.00088208,-0.00027629,0.00061109,0.00023195,0.00105121,0.0
 0205564,0.00016848,0.00441611,0.00005576,0.00004582,-0.00004893,-0.000
 06301,-0.00008637,-0.00001374,0.00001046,-0.00000308,0.00000888,-0.000
 01013,-0.00000564,0.00001624,0.00000121,-0.00001675,0.00003420,-0.0000
 0962,0.00000229,0.00000825,0.00001783,-0.00010043,-0.00006246,-0.00006
 048,0.00006657,-0.00004789,0.00520305,0.01657402,0.16124161\\0.0000020
 9,0.00001085,0.00001920,-0.00001883,0.00000820,-0.00001457,0.00000119,
 -0.00000375,0.00000278,0.00000147,0.00000267,-0.00000370,0.00000162,-0
 .00000367,-0.00000302,0.00000508,-0.00000274,0.00000647,-0.00006462,-0
 .00001764,-0.00000263,-0.00000335,0.00004937,-0.00000896,0.00003282,-0
 .00002622,0.00000744,0.00000200,-0.00000274,0.00000404,0.00000077,0.00
 000320,0.00000149,-0.00000100,0.00000134,-0.00000062,0.00000241,0.0000
 0089,-0.00000128,-0.00000081,-0.00000012,-0.00000306,-0.00000061,0.000
 00130,0.00000425,0.00000046,0.00000033,-0.00000306,0.00000106,0.000000
 34,-0.00000194,-0.00000161,0.00000275,0.00000622,0.00000271,-0.0000018
 4,-0.00000042,0.00000049,-0.00000493,0.00000052,0.00003815,-0.00002919
 ,0.00000720,-0.00000202,0.00000070,-0.00000368,-0.00000066,0.00000108,
 -0.00000293,0.00000141,-0.00000005,0.00000211,0.00000046,-0.00000034,0
 .00000102,0.00000048,-0.00000072,0.00000035,-0.00000043,-0.00000080,0.
 00000196,-0.00000018,-0.00000053,0.00000033,0.00000118,-0.00000238,-0.
 00000715,-0.00000171,0.00001464,-0.00000835\\\@
 The archive entry for this job was punched.


 NOTHING WILL BE ATTEMPTED IF ALL POSSIBLE OBJECTIONS
 MUST FIRST BE OVERCOME.

                               -- THE GOLDEN PRINCIPLE,
                    PAUL DICKSON'S "THE OFFICIAL RULES"
 Job cpu time:       0 days  2 hours 43 minutes 17.9 seconds.
 Elapsed time:       0 days  0 hours 10 minutes 31.6 seconds.
 File lengths (MBytes):  RWF=   1520 Int=      0 D2E=      0 Chk=     20 Scr=     32
 Normal termination of Gaussian 16 at Fri Aug  4 15:44:49 2023.
